Program Version,EnergyPlus, Version 9.5.0-de239b2e5f, YMD=2021.08.10 21:26
1,5,Environment Title[],Latitude[deg],Longitude[deg],Time Zone[],Elevation[m]
2,8,Day of Simulation[],Month[],Day of Month[],DST Indicator[1=yes 0=no],Hour[],StartMinute[],EndMinute[],DayType
3,5,Cumulative Day of Simulation[],Month[],Day of Month[],DST Indicator[1=yes 0=no],DayType  ! When Daily Report Variables Requested
4,2,Cumulative Days of Simulation[],Month[]  ! When Monthly Report Variables Requested
5,1,Cumulative Days of Simulation[] ! When Run Period Report Variables Requested
6,1,Calendar Year of Simulation[] ! When Annual Report Variables Requested
9,1,Electricity:Facility [J] !TimeStep
1381,1,NaturalGas:Facility [J] !TimeStep
End of Data Dictionary
1,BUFFALO NIAGARA INTL AP ANN CLG .4% CONDNS DB=>MWB 1 HVAC Sizing Pass 1,  42.93, -78.73,  -5.00, 215.00
2,1, 7,21, 0, 1, 0.00,60.00,SummerDesignDay
9,16273252508.734004
1381,11483000019.200272
2,1, 7,21, 0, 2, 0.00,60.00,SummerDesignDay
9,15022627940.458144
1381,6642653744.682075
2,1, 7,21, 0, 3, 0.00,60.00,SummerDesignDay
9,15036416906.89087
1381,6457276570.74201
2,1, 7,21, 0, 4, 0.00,60.00,SummerDesignDay
9,15147143379.00108
1381,6457276570.74201
2,1, 7,21, 0, 5, 0.00,60.00,SummerDesignDay
9,15244042928.275523
1381,6457276570.74201
2,1, 7,21, 0, 6, 0.00,60.00,SummerDesignDay
9,15811198619.292124
1381,6457276570.74201
2,1, 7,21, 0, 7, 0.00,60.00,SummerDesignDay
9,18129313589.75794
1381,10415471470.885617
2,1, 7,21, 0, 8, 0.00,60.00,SummerDesignDay
9,19755607345.94905
1381,13050975776.656273
2,1, 7,21, 0, 9, 0.00,60.00,SummerDesignDay
9,19396676913.50518
1381,12719192107.109074
2,1, 7,21, 0,10, 0.00,60.00,SummerDesignDay
9,19340797754.119314
1381,12481369122.716004
2,1, 7,21, 0,11, 0.00,60.00,SummerDesignDay
9,19285106266.46898
1381,12096780618.26883
2,1, 7,21, 0,12, 0.00,60.00,SummerDesignDay
9,19392536968.708993
1381,12423754066.680466
2,1, 7,21, 0,13, 0.00,60.00,SummerDesignDay
9,19333516675.16065
1381,12376788637.705029
2,1, 7,21, 0,14, 0.00,60.00,SummerDesignDay
9,19286007314.44511
1381,12051669817.404423
2,1, 7,21, 0,15, 0.00,60.00,SummerDesignDay
9,19174668780.758714
1381,12031163769.05735
2,1, 7,21, 0,16, 0.00,60.00,SummerDesignDay
9,19086266978.198614
1381,12030700383.88015
2,1, 7,21, 0,17, 0.00,60.00,SummerDesignDay
9,18968254296.348829
1381,12030237402.862074
2,1, 7,21, 0,18, 0.00,60.00,SummerDesignDay
9,18977630722.386079
1381,12126491667.39072
2,1, 7,21, 0,19, 0.00,60.00,SummerDesignDay
9,19003337535.83033
1381,12792918718.136963
2,1, 7,21, 0,20, 0.00,60.00,SummerDesignDay
9,18947031547.780218
1381,12826828033.435379
2,1, 7,21, 0,21, 0.00,60.00,SummerDesignDay
9,19267688339.45086
1381,12757464392.453995
2,1, 7,21, 0,22, 0.00,60.00,SummerDesignDay
9,19215519528.4037
1381,12793812384.333878
2,1, 7,21, 0,23, 0.00,60.00,SummerDesignDay
9,18347803650.236356
1381,12424571317.275202
2,1, 7,21, 0,24, 0.00,60.00,SummerDesignDay
9,17897086068.957235
1381,11739042739.810984
1,BUFFALO NIAGARA INTL AP ANN CLG .4% CONDNS WB=>MDB 1 HVAC Sizing Pass 1,  42.93, -78.73,  -5.00, 215.00
2,1, 7,21, 0, 1, 0.00,60.00,SummerDesignDay
9,16317531063.637316
1381,11483000019.200272
2,1, 7,21, 0, 2, 0.00,60.00,SummerDesignDay
9,15020584831.904006
1381,6642653744.682075
2,1, 7,21, 0, 3, 0.00,60.00,SummerDesignDay
9,15005181144.585669
1381,6457276570.74201
2,1, 7,21, 0, 4, 0.00,60.00,SummerDesignDay
9,15060149874.410967
1381,6457276570.74201
2,1, 7,21, 0, 5, 0.00,60.00,SummerDesignDay
9,15122454000.96373
1381,6457276570.74201
2,1, 7,21, 0, 6, 0.00,60.00,SummerDesignDay
9,15648049793.677674
1381,6457276570.74201
2,1, 7,21, 0, 7, 0.00,60.00,SummerDesignDay
9,18073162529.924585
1381,10415471470.885617
2,1, 7,21, 0, 8, 0.00,60.00,SummerDesignDay
9,20141284723.362546
1381,13050975776.656474
2,1, 7,21, 0, 9, 0.00,60.00,SummerDesignDay
9,20370280643.021955
1381,12719192108.013344
2,1, 7,21, 0,10, 0.00,60.00,SummerDesignDay
9,20448033821.69975
1381,12481369122.712559
2,1, 7,21, 0,11, 0.00,60.00,SummerDesignDay
9,20586336107.55521
1381,12096780617.309529
2,1, 7,21, 0,12, 0.00,60.00,SummerDesignDay
9,20782809113.18482
1381,12423754066.678517
2,1, 7,21, 0,13, 0.00,60.00,SummerDesignDay
9,20238712439.33836
1381,12376788637.702988
2,1, 7,21, 0,14, 0.00,60.00,SummerDesignDay
9,20233505217.02023
1381,12051669818.298151
2,1, 7,21, 0,15, 0.00,60.00,SummerDesignDay
9,20133243866.560483
1381,12031163769.041424
2,1, 7,21, 0,16, 0.00,60.00,SummerDesignDay
9,20558123840.451604
1381,12030700383.864418
2,1, 7,21, 0,17, 0.00,60.00,SummerDesignDay
9,20352468668.623384
1381,12030237402.846547
2,1, 7,21, 0,18, 0.00,60.00,SummerDesignDay
9,20245187147.60273
1381,12126491666.586419
2,1, 7,21, 0,19, 0.00,60.00,SummerDesignDay
9,20105485445.068494
1381,12792918718.135672
2,1, 7,21, 0,20, 0.00,60.00,SummerDesignDay
9,19922384313.736856
1381,12826828033.434166
2,1, 7,21, 0,21, 0.00,60.00,SummerDesignDay
9,20145534184.972627
1381,12757464392.45261
2,1, 7,21, 0,22, 0.00,60.00,SummerDesignDay
9,19741148484.129438
1381,12793812384.33269
2,1, 7,21, 0,23, 0.00,60.00,SummerDesignDay
9,18673246322.241609
1381,12424571317.27527
2,1, 7,21, 0,24, 0.00,60.00,SummerDesignDay
9,18060301123.099138
1381,11739042740.523922
1,BUFFALO NIAGARA INTL AP ANN HTG 99.6% CONDNS DB 1 HVAC Sizing Pass 1,  42.93, -78.73,  -5.00, 215.00
2,1, 1,21, 0, 1, 0.00,60.00,WinterDesignDay
9,3489050566.623176
1381,22598265714.544717
2,1, 1,21, 0, 2, 0.00,60.00,WinterDesignDay
9,3103488031.1565496
1381,16412028255.82632
2,1, 1,21, 0, 3, 0.00,60.00,WinterDesignDay
9,3103776049.228019
1381,16316995471.362336
2,1, 1,21, 0, 4, 0.00,60.00,WinterDesignDay
9,3103677410.9560897
1381,16345926509.13143
2,1, 1,21, 0, 5, 0.00,60.00,WinterDesignDay
9,3103758299.375389
1381,16371164903.851275
2,1, 1,21, 0, 6, 0.00,60.00,WinterDesignDay
9,3133571284.950888
1381,17026867755.292973
2,1, 1,21, 0, 7, 0.00,60.00,WinterDesignDay
9,3421840886.9084026
1381,23790600825.052225
2,1, 1,21, 0, 8, 0.00,60.00,WinterDesignDay
9,3431375809.323993
1381,23962315333.54141
2,1, 1,21, 0, 9, 0.00,60.00,WinterDesignDay
9,2762242603.1020195
1381,23890914941.788805
2,1, 1,21, 0,10, 0.00,60.00,WinterDesignDay
9,3746587907.746183
1381,25239848321.14293
2,1, 1,21, 0,11, 0.00,60.00,WinterDesignDay
9,3626983691.61315
1381,25021289097.82971
2,1, 1,21, 0,12, 0.00,60.00,WinterDesignDay
9,3723374857.3028075
1381,25224417968.672254
2,1, 1,21, 0,13, 0.00,60.00,WinterDesignDay
9,3709056497.0211389
1381,25203497690.727819
2,1, 1,21, 0,14, 0.00,60.00,WinterDesignDay
9,3621597762.663007
1381,24942872827.663328
2,1, 1,21, 0,15, 0.00,60.00,WinterDesignDay
9,3522426871.3440415
1381,24673391525.961408
2,1, 1,21, 0,16, 0.00,60.00,WinterDesignDay
9,3517916673.5146448
1381,24662636821.780855
2,1, 1,21, 0,17, 0.00,60.00,WinterDesignDay
9,3424032865.7946746
1381,24633251420.683713
2,1, 1,21, 0,18, 0.00,60.00,WinterDesignDay
9,4183038324.265788
1381,24640975691.780527
2,1, 1,21, 0,19, 0.00,60.00,WinterDesignDay
9,4483677861.062545
1381,25114870659.367624
2,1, 1,21, 0,20, 0.00,60.00,WinterDesignDay
9,4510048658.35395
1381,25103178121.340719
2,1, 1,21, 0,21, 0.00,60.00,WinterDesignDay
9,4387848970.1002249
1381,25099907659.339048
2,1, 1,21, 0,22, 0.00,60.00,WinterDesignDay
9,4493875366.823833
1381,25089842869.185514
2,1, 1,21, 0,23, 0.00,60.00,WinterDesignDay
9,4112943837.9740507
1381,23238195587.10421
2,1, 1,21, 0,24, 0.00,60.00,WinterDesignDay
9,3922174709.2820255
1381,23028678756.548494
1,BUFFALO NIAGARA INTL AP ANN CLG .4% CONDNS DB=>MWB 1,  42.93, -78.73,  -5.00, 215.00
2,1, 7,21, 0, 1, 0.00,60.00,SummerDesignDay
9,16330518765.64169
1381,11483000019.200272
2,1, 7,21, 0, 2, 0.00,60.00,SummerDesignDay
9,15083388966.435555
1381,6642653744.682075
2,1, 7,21, 0, 3, 0.00,60.00,SummerDesignDay
9,15097170851.332575
1381,6457276570.74201
2,1, 7,21, 0, 4, 0.00,60.00,SummerDesignDay
9,15207347909.630246
1381,6457276570.74201
2,1, 7,21, 0, 5, 0.00,60.00,SummerDesignDay
9,15303723937.927674
1381,6457276570.74201
2,1, 7,21, 0, 6, 0.00,60.00,SummerDesignDay
9,15866895885.10211
1381,6457276570.74201
2,1, 7,21, 0, 7, 0.00,60.00,SummerDesignDay
9,18151838710.813074
1381,10415471470.885617
2,1, 7,21, 0, 8, 0.00,60.00,SummerDesignDay
9,19763213259.10975
1381,13050975776.656474
2,1, 7,21, 0, 9, 0.00,60.00,SummerDesignDay
9,19414669463.20855
1381,12719192107.108887
2,1, 7,21, 0,10, 0.00,60.00,SummerDesignDay
9,19359040169.67854
1381,12481369122.732428
2,1, 7,21, 0,11, 0.00,60.00,SummerDesignDay
9,19304848770.80167
1381,12096780618.25229
2,1, 7,21, 0,12, 0.00,60.00,SummerDesignDay
9,19413914690.464696
1381,12423754066.680432
2,1, 7,21, 0,13, 0.00,60.00,SummerDesignDay
9,19355870132.27555
1381,12376788637.70499
2,1, 7,21, 0,14, 0.00,60.00,SummerDesignDay
9,19307845309.97833
1381,12051669817.42006
2,1, 7,21, 0,15, 0.00,60.00,SummerDesignDay
9,19196498919.809
1381,12031163769.057072
2,1, 7,21, 0,16, 0.00,60.00,SummerDesignDay
9,19108831872.46079
1381,12030700383.879876
2,1, 7,21, 0,17, 0.00,60.00,SummerDesignDay
9,18992338602.963956
1381,12030237402.861802
2,1, 7,21, 0,18, 0.00,60.00,SummerDesignDay
9,19003681951.01142
1381,12126491667.376643
2,1, 7,21, 0,19, 0.00,60.00,SummerDesignDay
9,19032980559.847387
1381,12792918718.13694
2,1, 7,21, 0,20, 0.00,60.00,SummerDesignDay
9,18980643854.467695
1381,12826828033.43536
2,1, 7,21, 0,21, 0.00,60.00,SummerDesignDay
9,19303439620.85379
1381,12757464392.453969
2,1, 7,21, 0,22, 0.00,60.00,SummerDesignDay
9,19252800729.34523
1381,12793812384.333855
2,1, 7,21, 0,23, 0.00,60.00,SummerDesignDay
9,18394389554.351007
1381,12424571317.275265
2,1, 7,21, 0,24, 0.00,60.00,SummerDesignDay
9,17944250865.514123
1381,11739042739.904076
1,BUFFALO NIAGARA INTL AP ANN CLG .4% CONDNS WB=>MDB 1,  42.93, -78.73,  -5.00, 215.00
2,1, 7,21, 0, 1, 0.00,60.00,SummerDesignDay
9,16374711946.20235
1381,11483000019.200272
2,1, 7,21, 0, 2, 0.00,60.00,SummerDesignDay
9,15081541530.204997
1381,6642653744.682075
2,1, 7,21, 0, 3, 0.00,60.00,SummerDesignDay
9,15066208823.404284
1381,6457276570.74201
2,1, 7,21, 0, 4, 0.00,60.00,SummerDesignDay
9,15121011982.99226
1381,6457276570.74201
2,1, 7,21, 0, 5, 0.00,60.00,SummerDesignDay
9,15183037136.817067
1381,6457276570.74201
2,1, 7,21, 0, 6, 0.00,60.00,SummerDesignDay
9,15701778678.049624
1381,6457276570.74201
2,1, 7,21, 0, 7, 0.00,60.00,SummerDesignDay
9,18096001160.279047
1381,11408048706.520909
2,1, 7,21, 0, 8, 0.00,60.00,SummerDesignDay
9,20141251724.589738
1381,12827009631.434685
2,1, 7,21, 0, 9, 0.00,60.00,SummerDesignDay
9,20380829157.575036
1381,12792976614.172326
2,1, 7,21, 0,10, 0.00,60.00,SummerDesignDay
9,20450106111.33558
1381,12424285362.163607
2,1, 7,21, 0,11, 0.00,60.00,SummerDesignDay
9,20581567531.20683
1381,12377340691.224595
2,1, 7,21, 0,12, 0.00,60.00,SummerDesignDay
9,20778164814.76087
1381,12424915660.333277
2,1, 7,21, 0,13, 0.00,60.00,SummerDesignDay
9,20255891277.85559
1381,12288982466.627852
2,1, 7,21, 0,14, 0.00,60.00,SummerDesignDay
9,20252089264.530908
1381,12107466127.333155
2,1, 7,21, 0,15, 0.00,60.00,SummerDesignDay
9,20150145381.943468
1381,11955089731.52336
2,1, 7,21, 0,16, 0.00,60.00,SummerDesignDay
9,20551631434.912229
1381,11954875811.761673
2,1, 7,21, 0,17, 0.00,60.00,SummerDesignDay
9,20351490166.04491
1381,11954658326.707699
2,1, 7,21, 0,18, 0.00,60.00,SummerDesignDay
9,20250801542.83542
1381,12377320454.402449
2,1, 7,21, 0,19, 0.00,60.00,SummerDesignDay
9,20119721383.66539
1381,12793776237.308064
2,1, 7,21, 0,20, 0.00,60.00,SummerDesignDay
9,19946637950.33445
1381,12827630314.779366
2,1, 7,21, 0,21, 0.00,60.00,SummerDesignDay
9,20172696864.853864
1381,12469202035.486668
2,1, 7,21, 0,22, 0.00,60.00,SummerDesignDay
9,19776258085.172887
1381,12792849325.606846
2,1, 7,21, 0,23, 0.00,60.00,SummerDesignDay
9,18717647439.356267
1381,12424550297.392075
2,1, 7,21, 0,24, 0.00,60.00,SummerDesignDay
9,18106144952.789766
1381,11890420820.909102
1,BUFFALO NIAGARA INTL AP ANN HTG 99.6% CONDNS DB 1,  42.93, -78.73,  -5.00, 215.00
2,1, 1,21, 0, 1, 0.00,60.00,WinterDesignDay
9,3489046881.159742
1381,22598265714.544717
2,1, 1,21, 0, 2, 0.00,60.00,WinterDesignDay
9,3103488027.3814618
1381,16412028255.82632
2,1, 1,21, 0, 3, 0.00,60.00,WinterDesignDay
9,3103776041.741946
1381,16316995471.362336
2,1, 1,21, 0, 4, 0.00,60.00,WinterDesignDay
9,3103677407.114452
1381,16345926509.13143
2,1, 1,21, 0, 5, 0.00,60.00,WinterDesignDay
9,3103758295.5665757
1381,16371164903.851275
2,1, 1,21, 0, 6, 0.00,60.00,WinterDesignDay
9,3133571281.2283289
1381,17026867755.292973
2,1, 1,21, 0, 7, 0.00,60.00,WinterDesignDay
9,3421840883.19089
1381,23790600825.052225
2,1, 1,21, 0, 8, 0.00,60.00,WinterDesignDay
9,3431375801.891712
1381,23962315333.54141
2,1, 1,21, 0, 9, 0.00,60.00,WinterDesignDay
9,2762242599.3729989
1381,23890914941.788805
2,1, 1,21, 0,10, 0.00,60.00,WinterDesignDay
9,3746330844.074992
1381,25239848321.14293
2,1, 1,21, 0,11, 0.00,60.00,WinterDesignDay
9,3627225376.0147926
1381,25021289097.82971
2,1, 1,21, 0,12, 0.00,60.00,WinterDesignDay
9,3723387575.9515225
1381,25224417968.672254
2,1, 1,21, 0,13, 0.00,60.00,WinterDesignDay
9,3709263806.0792987
1381,25203497690.727819
2,1, 1,21, 0,14, 0.00,60.00,WinterDesignDay
9,3621407537.869866
1381,24942872827.663328
2,1, 1,21, 0,15, 0.00,60.00,WinterDesignDay
9,3522343469.938491
1381,24673391525.961244
2,1, 1,21, 0,16, 0.00,60.00,WinterDesignDay
9,3517939894.2623469
1381,24662636821.741807
2,1, 1,21, 0,17, 0.00,60.00,WinterDesignDay
9,3424001372.0579736
1381,24633251420.63853
2,1, 1,21, 0,18, 0.00,60.00,WinterDesignDay
9,4182988770.312006
1381,24640975691.746458
2,1, 1,21, 0,19, 0.00,60.00,WinterDesignDay
9,4483646265.3189539
1381,25114870659.367624
2,1, 1,21, 0,20, 0.00,60.00,WinterDesignDay
9,4509457151.697535
1381,25103178121.340719
2,1, 1,21, 0,21, 0.00,60.00,WinterDesignDay
9,4388280036.995183
1381,25099907659.339048
2,1, 1,21, 0,22, 0.00,60.00,WinterDesignDay
9,4493909108.128884
1381,25089842869.185514
2,1, 1,21, 0,23, 0.00,60.00,WinterDesignDay
9,4113303656.9974868
1381,23238195588.64014
2,1, 1,21, 0,24, 0.00,60.00,WinterDesignDay
9,3921864279.0425269
1381,23028678754.9274
End of Data
 Number of Records Written=         288
