Program Version,EnergyPlus, Version 9.5.0-de239b2e5f, YMD=2021.08.10 17:46
1,5,Environment Title[],Latitude[deg],Longitude[deg],Time Zone[],Elevation[m]
2,8,Day of Simulation[],Month[],Day of Month[],DST Indicator[1=yes 0=no],Hour[],StartMinute[],EndMinute[],DayType
3,5,Cumulative Day of Simulation[],Month[],Day of Month[],DST Indicator[1=yes 0=no],DayType  ! When Daily Report Variables Requested
4,2,Cumulative Days of Simulation[],Month[]  ! When Monthly Report Variables Requested
5,1,Cumulative Days of Simulation[] ! When Run Period Report Variables Requested
6,1,Calendar Year of Simulation[] ! When Annual Report Variables Requested
9,1,Electricity:Facility [J] !TimeStep
1381,1,NaturalGas:Facility [J] !TimeStep
End of Data Dictionary
1,BUFFALO NIAGARA INTL AP ANN CLG .4% CONDNS DB=>MWB 1 HVAC Sizing Pass 1,  42.93, -78.73,  -5.00, 215.00
2,1, 7,21, 0, 1, 0.00,60.00,SummerDesignDay
9,16273252299.378808
1381,11483000019.200272
2,1, 7,21, 0, 2, 0.00,60.00,SummerDesignDay
9,15022627712.702506
1381,6642653744.682075
2,1, 7,21, 0, 3, 0.00,60.00,SummerDesignDay
9,15036416658.859539
1381,6457276570.74201
2,1, 7,21, 0, 4, 0.00,60.00,SummerDesignDay
9,15147143115.720715
1381,6457276570.74201
2,1, 7,21, 0, 5, 0.00,60.00,SummerDesignDay
9,15244042716.982958
1381,6457276570.74201
2,1, 7,21, 0, 6, 0.00,60.00,SummerDesignDay
9,15811197954.793725
1381,6457276570.74201
2,1, 7,21, 0, 7, 0.00,60.00,SummerDesignDay
9,18129312487.5261
1381,10415471470.885617
2,1, 7,21, 0, 8, 0.00,60.00,SummerDesignDay
9,19755606684.29881
1381,13050975776.656273
2,1, 7,21, 0, 9, 0.00,60.00,SummerDesignDay
9,19396676398.167505
1381,12719192107.109074
2,1, 7,21, 0,10, 0.00,60.00,SummerDesignDay
9,19340797246.534708
1381,12481369122.716004
2,1, 7,21, 0,11, 0.00,60.00,SummerDesignDay
9,19285105963.5506
1381,12096780618.26883
2,1, 7,21, 0,12, 0.00,60.00,SummerDesignDay
9,19392536635.870866
1381,12423754066.680466
2,1, 7,21, 0,13, 0.00,60.00,SummerDesignDay
9,19333516356.191034
1381,12376788637.705029
2,1, 7,21, 0,14, 0.00,60.00,SummerDesignDay
9,19286007035.241624
1381,12051669817.404423
2,1, 7,21, 0,15, 0.00,60.00,SummerDesignDay
9,19174668786.6324
1381,12031163769.05735
2,1, 7,21, 0,16, 0.00,60.00,SummerDesignDay
9,19086266973.498159
1381,12030700383.88015
2,1, 7,21, 0,17, 0.00,60.00,SummerDesignDay
9,18968254393.042966
1381,12030237402.862074
2,1, 7,21, 0,18, 0.00,60.00,SummerDesignDay
9,18977630872.569868
1381,12126491667.39072
2,1, 7,21, 0,19, 0.00,60.00,SummerDesignDay
9,19003337482.468919
1381,12792918718.136963
2,1, 7,21, 0,20, 0.00,60.00,SummerDesignDay
9,18947020457.067895
1381,12826828033.435379
2,1, 7,21, 0,21, 0.00,60.00,SummerDesignDay
9,19267680582.18733
1381,12757464392.453995
2,1, 7,21, 0,22, 0.00,60.00,SummerDesignDay
9,19215516734.121088
1381,12793812384.333878
2,1, 7,21, 0,23, 0.00,60.00,SummerDesignDay
9,18347802264.385496
1381,12424571317.275202
2,1, 7,21, 0,24, 0.00,60.00,SummerDesignDay
9,17897084909.94291
1381,11739042739.810984
1,BUFFALO NIAGARA INTL AP ANN CLG .4% CONDNS WB=>MDB 1 HVAC Sizing Pass 1,  42.93, -78.73,  -5.00, 215.00
2,1, 7,21, 0, 1, 0.00,60.00,SummerDesignDay
9,16317530829.398285
1381,11483000019.200272
2,1, 7,21, 0, 2, 0.00,60.00,SummerDesignDay
9,15020584604.007739
1381,6642653744.682075
2,1, 7,21, 0, 3, 0.00,60.00,SummerDesignDay
9,15005180895.906842
1381,6457276570.74201
2,1, 7,21, 0, 4, 0.00,60.00,SummerDesignDay
9,15060149700.926396
1381,6457276570.74201
2,1, 7,21, 0, 5, 0.00,60.00,SummerDesignDay
9,15122453751.952382
1381,6457276570.74201
2,1, 7,21, 0, 6, 0.00,60.00,SummerDesignDay
9,15648049127.935727
1381,6457276570.74201
2,1, 7,21, 0, 7, 0.00,60.00,SummerDesignDay
9,18069103925.69699
1381,10415471470.885617
2,1, 7,21, 0, 8, 0.00,60.00,SummerDesignDay
9,20141294779.629243
1381,13050975776.656474
2,1, 7,21, 0, 9, 0.00,60.00,SummerDesignDay
9,20367244134.628019
1381,12719192108.013344
2,1, 7,21, 0,10, 0.00,60.00,SummerDesignDay
9,20450975849.974538
1381,12481369122.712559
2,1, 7,21, 0,11, 0.00,60.00,SummerDesignDay
9,20584419091.376928
1381,12096780617.309529
2,1, 7,21, 0,12, 0.00,60.00,SummerDesignDay
9,20781924648.9504
1381,12423754066.678517
2,1, 7,21, 0,13, 0.00,60.00,SummerDesignDay
9,20238709888.447584
1381,12376788637.702988
2,1, 7,21, 0,14, 0.00,60.00,SummerDesignDay
9,20234558326.715036
1381,12051669818.298151
2,1, 7,21, 0,15, 0.00,60.00,SummerDesignDay
9,20133219076.10225
1381,12031163769.041424
2,1, 7,21, 0,16, 0.00,60.00,SummerDesignDay
9,20559523683.781904
1381,12030700383.864418
2,1, 7,21, 0,17, 0.00,60.00,SummerDesignDay
9,20350071373.037965
1381,12030237402.846547
2,1, 7,21, 0,18, 0.00,60.00,SummerDesignDay
9,20246625303.72336
1381,12126491666.586419
2,1, 7,21, 0,19, 0.00,60.00,SummerDesignDay
9,20106168529.25902
1381,12792918718.135672
2,1, 7,21, 0,20, 0.00,60.00,SummerDesignDay
9,19920893851.872037
1381,12826828033.434166
2,1, 7,21, 0,21, 0.00,60.00,SummerDesignDay
9,20147178242.566854
1381,12757464392.45261
2,1, 7,21, 0,22, 0.00,60.00,SummerDesignDay
9,19741145965.114847
1381,12793812384.33269
2,1, 7,21, 0,23, 0.00,60.00,SummerDesignDay
9,18670246362.912637
1381,12424571317.27527
2,1, 7,21, 0,24, 0.00,60.00,SummerDesignDay
9,18063312546.5737
1381,11739042740.523922
1,BUFFALO NIAGARA INTL AP ANN HTG 99.6% CONDNS DB 1 HVAC Sizing Pass 1,  42.93, -78.73,  -5.00, 215.00
2,1, 1,21, 0, 1, 0.00,60.00,WinterDesignDay
9,3489050539.6995675
1381,22598263926.64571
2,1, 1,21, 0, 2, 0.00,60.00,WinterDesignDay
9,3103488004.2329409
1381,16412026467.920197
2,1, 1,21, 0, 3, 0.00,60.00,WinterDesignDay
9,3103776022.3044106
1381,16316993683.462496
2,1, 1,21, 0, 4, 0.00,60.00,WinterDesignDay
9,3103677384.0324809
1381,16345924721.23686
2,1, 1,21, 0, 5, 0.00,60.00,WinterDesignDay
9,3103758272.45178
1381,16371163115.959755
2,1, 1,21, 0, 6, 0.00,60.00,WinterDesignDay
9,3133571258.0272815
1381,17026865967.463217
2,1, 1,21, 0, 7, 0.00,60.00,WinterDesignDay
9,3421840859.9848124
1381,23790599037.322664
2,1, 1,21, 0, 8, 0.00,60.00,WinterDesignDay
9,3431375782.4004118
1381,23962313546.001436
2,1, 1,21, 0, 9, 0.00,60.00,WinterDesignDay
9,2762242576.178319
1381,23890913153.79026
2,1, 1,21, 0,10, 0.00,60.00,WinterDesignDay
9,3746587880.822516
1381,25239846533.668878
2,1, 1,21, 0,11, 0.00,60.00,WinterDesignDay
9,3626983664.689284
1381,25021287309.787824
2,1, 1,21, 0,12, 0.00,60.00,WinterDesignDay
9,3723374830.3790438
1381,25224416180.670206
2,1, 1,21, 0,13, 0.00,60.00,WinterDesignDay
9,3709056470.0976436
1381,25203495902.69031
2,1, 1,21, 0,14, 0.00,60.00,WinterDesignDay
9,3621597735.7397525
1381,24942871039.685018
2,1, 1,21, 0,15, 0.00,60.00,WinterDesignDay
9,3522426844.4197809
1381,24673389737.935178
2,1, 1,21, 0,16, 0.00,60.00,WinterDesignDay
9,3517916646.588885
1381,24662635033.760549
2,1, 1,21, 0,17, 0.00,60.00,WinterDesignDay
9,3424032838.86528
1381,24633249632.981588
2,1, 1,21, 0,18, 0.00,60.00,WinterDesignDay
9,4183038297.370108
1381,24640973903.77232
2,1, 1,21, 0,19, 0.00,60.00,WinterDesignDay
9,4483677834.12611
1381,25114868871.404184
2,1, 1,21, 0,20, 0.00,60.00,WinterDesignDay
9,4510048631.410655
1381,25103176333.33345
2,1, 1,21, 0,21, 0.00,60.00,WinterDesignDay
9,4387848943.2335
1381,25099905871.330984
2,1, 1,21, 0,22, 0.00,60.00,WinterDesignDay
9,4493875339.918475
1381,25089841081.22514
2,1, 1,21, 0,23, 0.00,60.00,WinterDesignDay
9,4112943811.2595756
1381,23238193810.312044
2,1, 1,21, 0,24, 0.00,60.00,WinterDesignDay
9,3922174682.970131
1381,23028676968.86391
1,BUFFALO NIAGARA INTL AP ANN CLG .4% CONDNS DB=>MWB 1,  42.93, -78.73,  -5.00, 215.00
2,1, 7,21, 0, 1, 0.00,60.00,SummerDesignDay
9,16330254091.62436
1381,11483000019.200272
2,1, 7,21, 0, 2, 0.00,60.00,SummerDesignDay
9,15083275755.20077
1381,6642653744.682075
2,1, 7,21, 0, 3, 0.00,60.00,SummerDesignDay
9,15097170590.633158
1381,6457276570.74201
2,1, 7,21, 0, 4, 0.00,60.00,SummerDesignDay
9,15207347532.885382
1381,6457276570.74201
2,1, 7,21, 0, 5, 0.00,60.00,SummerDesignDay
9,15303723725.46323
1381,6457276570.74201
2,1, 7,21, 0, 6, 0.00,60.00,SummerDesignDay
9,15866895234.418086
1381,6457276570.74201
2,1, 7,21, 0, 7, 0.00,60.00,SummerDesignDay
9,18151837597.19177
1381,10415471456.233307
2,1, 7,21, 0, 8, 0.00,60.00,SummerDesignDay
9,19763219329.113607
1381,13050975788.175122
2,1, 7,21, 0, 9, 0.00,60.00,SummerDesignDay
9,19414668952.830186
1381,12719192096.966383
2,1, 7,21, 0,10, 0.00,60.00,SummerDesignDay
9,19359039640.144666
1381,12481369122.955431
2,1, 7,21, 0,11, 0.00,60.00,SummerDesignDay
9,19304848345.672029
1381,12096780628.836483
2,1, 7,21, 0,12, 0.00,60.00,SummerDesignDay
9,19413914438.604837
1381,12423754066.702275
2,1, 7,21, 0,13, 0.00,60.00,SummerDesignDay
9,19355869966.310194
1381,12376788637.727807
2,1, 7,21, 0,14, 0.00,60.00,SummerDesignDay
9,19307845037.936838
1381,12051669807.411282
2,1, 7,21, 0,15, 0.00,60.00,SummerDesignDay
9,19196498758.07365
1381,12031163769.235489
2,1, 7,21, 0,16, 0.00,60.00,SummerDesignDay
9,19108831860.40174
1381,12030700384.056059
2,1, 7,21, 0,17, 0.00,60.00,SummerDesignDay
9,18992338078.765394
1381,12030237403.035706
2,1, 7,21, 0,18, 0.00,60.00,SummerDesignDay
9,19003680972.596307
1381,12126491676.383893
2,1, 7,21, 0,19, 0.00,60.00,SummerDesignDay
9,19032979940.945878
1381,12792918718.151608
2,1, 7,21, 0,20, 0.00,60.00,SummerDesignDay
9,18980633007.37505
1381,12826828033.449158
2,1, 7,21, 0,21, 0.00,60.00,SummerDesignDay
9,19303431956.981737
1381,12757464392.469687
2,1, 7,21, 0,22, 0.00,60.00,SummerDesignDay
9,19252798038.84238
1381,12793812384.34738
2,1, 7,21, 0,23, 0.00,60.00,SummerDesignDay
9,18394388011.42736
1381,12424571317.276295
2,1, 7,21, 0,24, 0.00,60.00,SummerDesignDay
9,17944249730.108095
1381,11739042742.672307
1,BUFFALO NIAGARA INTL AP ANN CLG .4% CONDNS WB=>MDB 1,  42.93, -78.73,  -5.00, 215.00
2,1, 7,21, 0, 1, 0.00,60.00,SummerDesignDay
9,16374447254.215714
1381,11483000019.200272
2,1, 7,21, 0, 2, 0.00,60.00,SummerDesignDay
9,15081428313.08473
1381,6642653744.682075
2,1, 7,21, 0, 3, 0.00,60.00,SummerDesignDay
9,15066208576.908074
1381,6457276570.74201
2,1, 7,21, 0, 4, 0.00,60.00,SummerDesignDay
9,15121011611.116568
1381,6457276570.74201
2,1, 7,21, 0, 5, 0.00,60.00,SummerDesignDay
9,15183036879.320002
1381,6457276570.74201
2,1, 7,21, 0, 6, 0.00,60.00,SummerDesignDay
9,15701777978.196698
1381,6457276570.74201
2,1, 7,21, 0, 7, 0.00,60.00,SummerDesignDay
9,18096000041.970766
1381,11408048706.52129
2,1, 7,21, 0, 8, 0.00,60.00,SummerDesignDay
9,20141257848.670515
1381,12827009631.428324
2,1, 7,21, 0, 9, 0.00,60.00,SummerDesignDay
9,20380828519.457887
1381,12792976614.183203
2,1, 7,21, 0,10, 0.00,60.00,SummerDesignDay
9,20450105511.83734
1381,12424285362.176859
2,1, 7,21, 0,11, 0.00,60.00,SummerDesignDay
9,20581567221.940286
1381,12377340691.242428
2,1, 7,21, 0,12, 0.00,60.00,SummerDesignDay
9,20778164732.6599
1381,12424915660.350609
2,1, 7,21, 0,13, 0.00,60.00,SummerDesignDay
9,20255890954.06969
1381,12288982393.004014
2,1, 7,21, 0,14, 0.00,60.00,SummerDesignDay
9,20252089587.68558
1381,12107466202.579358
2,1, 7,21, 0,15, 0.00,60.00,SummerDesignDay
9,20150145931.572198
1381,11955089731.707592
2,1, 7,21, 0,16, 0.00,60.00,SummerDesignDay
9,20551631582.445638
1381,11954875812.114872
2,1, 7,21, 0,17, 0.00,60.00,SummerDesignDay
9,20351490101.583669
1381,11954658327.07183
2,1, 7,21, 0,18, 0.00,60.00,SummerDesignDay
9,20250802270.151727
1381,12377320454.706273
2,1, 7,21, 0,19, 0.00,60.00,SummerDesignDay
9,20119721567.1878
1381,12793776237.416384
2,1, 7,21, 0,20, 0.00,60.00,SummerDesignDay
9,19946626091.65209
1381,12827630314.880703
2,1, 7,21, 0,21, 0.00,60.00,SummerDesignDay
9,20172686999.10318
1381,12469202035.62776
2,1, 7,21, 0,22, 0.00,60.00,SummerDesignDay
9,19776253836.569215
1381,12792849325.734242
2,1, 7,21, 0,23, 0.00,60.00,SummerDesignDay
9,18717645748.87136
1381,12424550297.33155
2,1, 7,21, 0,24, 0.00,60.00,SummerDesignDay
9,18106143744.56295
1381,11890420820.94473
1,BUFFALO NIAGARA INTL AP ANN HTG 99.6% CONDNS DB 1,  42.93, -78.73,  -5.00, 215.00
2,1, 1,21, 0, 1, 0.00,60.00,WinterDesignDay
9,3489046854.236133
1381,22598263926.64571
2,1, 1,21, 0, 2, 0.00,60.00,WinterDesignDay
9,3103488000.457853
1381,16412026467.920197
2,1, 1,21, 0, 3, 0.00,60.00,WinterDesignDay
9,3103776014.8183376
1381,16316993683.462496
2,1, 1,21, 0, 4, 0.00,60.00,WinterDesignDay
9,3103677380.190843
1381,16345924721.23686
2,1, 1,21, 0, 5, 0.00,60.00,WinterDesignDay
9,3103758268.6429665
1381,16371163115.959755
2,1, 1,21, 0, 6, 0.00,60.00,WinterDesignDay
9,3133571254.304722
1381,17026865967.463217
2,1, 1,21, 0, 7, 0.00,60.00,WinterDesignDay
9,3421840856.267075
1381,23790599037.322664
2,1, 1,21, 0, 8, 0.00,60.00,WinterDesignDay
9,3431375774.967547
1381,23962313546.001436
2,1, 1,21, 0, 9, 0.00,60.00,WinterDesignDay
9,2762242572.4495098
1381,23890913153.79026
2,1, 1,21, 0,10, 0.00,60.00,WinterDesignDay
9,3746330817.151406
1381,25239846533.668878
2,1, 1,21, 0,11, 0.00,60.00,WinterDesignDay
9,3627225349.0911
1381,25021287309.787824
2,1, 1,21, 0,12, 0.00,60.00,WinterDesignDay
9,3723387549.0282409
1381,25224416180.670206
2,1, 1,21, 0,13, 0.00,60.00,WinterDesignDay
9,3709263779.156047
1381,25203495902.69031
2,1, 1,21, 0,14, 0.00,60.00,WinterDesignDay
9,3621407510.9464528
1381,24942871039.685018
2,1, 1,21, 0,15, 0.00,60.00,WinterDesignDay
9,3522343443.0160915
1381,24673389737.935014
2,1, 1,21, 0,16, 0.00,60.00,WinterDesignDay
9,3517939867.341858
1381,24662635033.721498
2,1, 1,21, 0,17, 0.00,60.00,WinterDesignDay
9,3424001345.1437776
1381,24633249632.936407
2,1, 1,21, 0,18, 0.00,60.00,WinterDesignDay
9,4182988743.4143974
1381,24640973903.73825
2,1, 1,21, 0,19, 0.00,60.00,WinterDesignDay
9,4483646238.409616
1381,25114868871.404184
2,1, 1,21, 0,20, 0.00,60.00,WinterDesignDay
9,4509457126.145373
1381,25103176333.33345
2,1, 1,21, 0,21, 0.00,60.00,WinterDesignDay
9,4388280008.413648
1381,25099905871.330984
2,1, 1,21, 0,22, 0.00,60.00,WinterDesignDay
9,4493909080.8446459
1381,25089841081.22514
2,1, 1,21, 0,23, 0.00,60.00,WinterDesignDay
9,4113303629.6692459
1381,23238193811.84797
2,1, 1,21, 0,24, 0.00,60.00,WinterDesignDay
9,3921864251.748512
1381,23028676967.242818
End of Data
 Number of Records Written=         288
