Program Version,EnergyPlus, Version 9.5.0-de239b2e5f, YMD=2021.08.10 21:48
1,5,Environment Title[],Latitude[deg],Longitude[deg],Time Zone[],Elevation[m]
2,8,Day of Simulation[],Month[],Day of Month[],DST Indicator[1=yes 0=no],Hour[],StartMinute[],EndMinute[],DayType
3,5,Cumulative Day of Simulation[],Month[],Day of Month[],DST Indicator[1=yes 0=no],DayType  ! When Daily Report Variables Requested
4,2,Cumulative Days of Simulation[],Month[]  ! When Monthly Report Variables Requested
5,1,Cumulative Days of Simulation[] ! When Run Period Report Variables Requested
6,1,Calendar Year of Simulation[] ! When Annual Report Variables Requested
9,1,Electricity:Facility [J] !TimeStep
1381,1,NaturalGas:Facility [J] !TimeStep
End of Data Dictionary
1,BUFFALO NIAGARA INTL AP ANN CLG .4% CONDNS DB=>MWB 1 HVAC Sizing Pass 1,  42.93, -78.73,  -5.00, 215.00
2,1, 7,21, 0, 1, 0.00,60.00,SummerDesignDay
9,16273252465.610308
1381,11483000019.200272
2,1, 7,21, 0, 2, 0.00,60.00,SummerDesignDay
9,15022627898.975899
1381,6642653744.682075
2,1, 7,21, 0, 3, 0.00,60.00,SummerDesignDay
9,15036416883.29702
1381,6457276570.74201
2,1, 7,21, 0, 4, 0.00,60.00,SummerDesignDay
9,15147143341.581324
1381,6457276570.74201
2,1, 7,21, 0, 5, 0.00,60.00,SummerDesignDay
9,15244042913.21723
1381,6457276570.74201
2,1, 7,21, 0, 6, 0.00,60.00,SummerDesignDay
9,15811198527.007527
1381,6457276570.74201
2,1, 7,21, 0, 7, 0.00,60.00,SummerDesignDay
9,18129313262.228818
1381,10415471470.885617
2,1, 7,21, 0, 8, 0.00,60.00,SummerDesignDay
9,19755607187.635057
1381,13050975776.656273
2,1, 7,21, 0, 9, 0.00,60.00,SummerDesignDay
9,19396676819.372598
1381,12719192107.109074
2,1, 7,21, 0,10, 0.00,60.00,SummerDesignDay
9,19340797643.311658
1381,12481369122.716004
2,1, 7,21, 0,11, 0.00,60.00,SummerDesignDay
9,19285106257.212984
1381,12096780618.26883
2,1, 7,21, 0,12, 0.00,60.00,SummerDesignDay
9,19392536707.738428
1381,12423754066.680466
2,1, 7,21, 0,13, 0.00,60.00,SummerDesignDay
9,19333516486.98527
1381,12376788637.705029
2,1, 7,21, 0,14, 0.00,60.00,SummerDesignDay
9,19286007087.85134
1381,12051669817.404423
2,1, 7,21, 0,15, 0.00,60.00,SummerDesignDay
9,19174668772.288408
1381,12031163769.05735
2,1, 7,21, 0,16, 0.00,60.00,SummerDesignDay
9,19086267064.156415
1381,12030700383.88015
2,1, 7,21, 0,17, 0.00,60.00,SummerDesignDay
9,18968253549.576807
1381,12030237402.862074
2,1, 7,21, 0,18, 0.00,60.00,SummerDesignDay
9,18977629843.649415
1381,12126491667.39072
2,1, 7,21, 0,19, 0.00,60.00,SummerDesignDay
9,19003337489.39012
1381,12792918718.136963
2,1, 7,21, 0,20, 0.00,60.00,SummerDesignDay
9,18947029427.196409
1381,12826828033.435379
2,1, 7,21, 0,21, 0.00,60.00,SummerDesignDay
9,19267686840.279676
1381,12757464392.453995
2,1, 7,21, 0,22, 0.00,60.00,SummerDesignDay
9,19215518951.766805
1381,12793812384.333878
2,1, 7,21, 0,23, 0.00,60.00,SummerDesignDay
9,18347803382.42219
1381,12424571317.275202
2,1, 7,21, 0,24, 0.00,60.00,SummerDesignDay
9,17897085835.452608
1381,11739042739.810984
1,BUFFALO NIAGARA INTL AP ANN CLG .4% CONDNS WB=>MDB 1 HVAC Sizing Pass 1,  42.93, -78.73,  -5.00, 215.00
2,1, 7,21, 0, 1, 0.00,60.00,SummerDesignDay
9,16317531016.148055
1381,11483000019.200272
2,1, 7,21, 0, 2, 0.00,60.00,SummerDesignDay
9,15020584790.66506
1381,6642653744.682075
2,1, 7,21, 0, 3, 0.00,60.00,SummerDesignDay
9,15005181093.323336
1381,6457276570.74201
2,1, 7,21, 0, 4, 0.00,60.00,SummerDesignDay
9,15060149841.892653
1381,6457276570.74201
2,1, 7,21, 0, 5, 0.00,60.00,SummerDesignDay
9,15122453954.3565
1381,6457276570.74201
2,1, 7,21, 0, 6, 0.00,60.00,SummerDesignDay
9,15648049695.575257
1381,6457276570.74201
2,1, 7,21, 0, 7, 0.00,60.00,SummerDesignDay
9,18069106319.3738
1381,10415471470.885617
2,1, 7,21, 0, 8, 0.00,60.00,SummerDesignDay
9,20141295303.745119
1381,13050975776.656474
2,1, 7,21, 0, 9, 0.00,60.00,SummerDesignDay
9,20367245048.63451
1381,12719192108.013344
2,1, 7,21, 0,10, 0.00,60.00,SummerDesignDay
9,20450976233.599184
1381,12481369122.712559
2,1, 7,21, 0,11, 0.00,60.00,SummerDesignDay
9,20584418805.12939
1381,12096780617.309529
2,1, 7,21, 0,12, 0.00,60.00,SummerDesignDay
9,20781925228.25268
1381,12423754066.678517
2,1, 7,21, 0,13, 0.00,60.00,SummerDesignDay
9,20238710097.79959
1381,12376788637.702988
2,1, 7,21, 0,14, 0.00,60.00,SummerDesignDay
9,20234557323.769845
1381,12051669818.298151
2,1, 7,21, 0,15, 0.00,60.00,SummerDesignDay
9,20133219512.35189
1381,12031163769.041424
2,1, 7,21, 0,16, 0.00,60.00,SummerDesignDay
9,20559522482.19523
1381,12030700383.864418
2,1, 7,21, 0,17, 0.00,60.00,SummerDesignDay
9,20350072242.400796
1381,12030237402.846547
2,1, 7,21, 0,18, 0.00,60.00,SummerDesignDay
9,20246625365.33426
1381,12126491666.586419
2,1, 7,21, 0,19, 0.00,60.00,SummerDesignDay
9,20106168414.020154
1381,12792918718.135672
2,1, 7,21, 0,20, 0.00,60.00,SummerDesignDay
9,19920903176.82461
1381,12826828033.434166
2,1, 7,21, 0,21, 0.00,60.00,SummerDesignDay
9,20147186484.400087
1381,12757464392.45261
2,1, 7,21, 0,22, 0.00,60.00,SummerDesignDay
9,19741148288.65412
1381,12793812384.33269
2,1, 7,21, 0,23, 0.00,60.00,SummerDesignDay
9,18670247732.598634
1381,12424571317.27527
2,1, 7,21, 0,24, 0.00,60.00,SummerDesignDay
9,18063313538.02287
1381,11739042740.523922
1,BUFFALO NIAGARA INTL AP ANN HTG 99.6% CONDNS DB 1 HVAC Sizing Pass 1,  42.93, -78.73,  -5.00, 215.00
2,1, 1,21, 0, 1, 0.00,60.00,WinterDesignDay
9,3489050561.5831959
1381,22598265379.857889
2,1, 1,21, 0, 2, 0.00,60.00,WinterDesignDay
9,3103488026.116569
1381,16412027921.138163
2,1, 1,21, 0, 3, 0.00,60.00,WinterDesignDay
9,3103776044.188039
1381,16316995136.67537
2,1, 1,21, 0, 4, 0.00,60.00,WinterDesignDay
9,3103677405.9161088
1381,16345926174.44542
2,1, 1,21, 0, 5, 0.00,60.00,WinterDesignDay
9,3103758294.3354089
1381,16371164569.165892
2,1, 1,21, 0, 6, 0.00,60.00,WinterDesignDay
9,3133571279.9109089
1381,17026867420.619156
2,1, 1,21, 0, 7, 0.00,60.00,WinterDesignDay
9,3421840881.8410928
1381,23790600490.40323
2,1, 1,21, 0, 8, 0.00,60.00,WinterDesignDay
9,3431375804.3083055
1381,23962314998.921827
2,1, 1,21, 0, 9, 0.00,60.00,WinterDesignDay
9,2762242598.0620558
1381,23890914607.083406
2,1, 1,21, 0,10, 0.00,60.00,WinterDesignDay
9,3746587902.7059137
1381,25239847986.535715
2,1, 1,21, 0,11, 0.00,60.00,WinterDesignDay
9,3626983686.5537335
1381,25021288763.11618
2,1, 1,21, 0,12, 0.00,60.00,WinterDesignDay
9,3723374852.2842357
1381,25224417633.966135
2,1, 1,21, 0,13, 0.00,60.00,WinterDesignDay
9,3709056491.981172
1381,25203497356.015058
2,1, 1,21, 0,14, 0.00,60.00,WinterDesignDay
9,3621597757.6008546
1381,24942872492.96168
2,1, 1,21, 0,15, 0.00,60.00,WinterDesignDay
9,3522426866.302362
1381,24673391191.250787
2,1, 1,21, 0,16, 0.00,60.00,WinterDesignDay
9,3517916668.652361
1381,24662636487.071355
2,1, 1,21, 0,17, 0.00,60.00,WinterDesignDay
9,3424032860.7566406
1381,24633251085.983385
2,1, 1,21, 0,18, 0.00,60.00,WinterDesignDay
9,4183038319.215568
1381,24640975357.071809
2,1, 1,21, 0,19, 0.00,60.00,WinterDesignDay
9,4483677856.026425
1381,25114870324.6688
2,1, 1,21, 0,20, 0.00,60.00,WinterDesignDay
9,4510048653.320776
1381,25103177786.63365
2,1, 1,21, 0,21, 0.00,60.00,WinterDesignDay
9,4387848965.038927
1381,25099907324.63187
2,1, 1,21, 0,22, 0.00,60.00,WinterDesignDay
9,4493875361.576986
1381,25089842534.487249
2,1, 1,21, 0,23, 0.00,60.00,WinterDesignDay
9,4112943833.0004847
1381,23238195252.585214
2,1, 1,21, 0,24, 0.00,60.00,WinterDesignDay
9,3922174704.513332
1381,23028678421.901819
1,BUFFALO NIAGARA INTL AP ANN CLG .4% CONDNS DB=>MWB 1,  42.93, -78.73,  -5.00, 215.00
2,1, 7,21, 0, 1, 0.00,60.00,SummerDesignDay
9,16330254267.939505
1381,11483000019.200272
2,1, 7,21, 0, 2, 0.00,60.00,SummerDesignDay
9,15083275947.168856
1381,6642653744.682075
2,1, 7,21, 0, 3, 0.00,60.00,SummerDesignDay
9,15097170828.334277
1381,6457276570.74201
2,1, 7,21, 0, 4, 0.00,60.00,SummerDesignDay
9,15207347758.72109
1381,6457276570.74201
2,1, 7,21, 0, 5, 0.00,60.00,SummerDesignDay
9,15303723902.384984
1381,6457276570.74201
2,1, 7,21, 0, 6, 0.00,60.00,SummerDesignDay
9,15866895801.770798
1381,6457276570.74201
2,1, 7,21, 0, 7, 0.00,60.00,SummerDesignDay
9,18151840367.561899
1381,10415471456.233307
2,1, 7,21, 0, 8, 0.00,60.00,SummerDesignDay
9,19763219842.552839
1381,13050975788.175122
2,1, 7,21, 0, 9, 0.00,60.00,SummerDesignDay
9,19414670133.74935
1381,12719192096.966383
2,1, 7,21, 0,10, 0.00,60.00,SummerDesignDay
9,19359040035.102788
1381,12481369122.955431
2,1, 7,21, 0,11, 0.00,60.00,SummerDesignDay
9,19304847581.274648
1381,12096780628.836483
2,1, 7,21, 0,12, 0.00,60.00,SummerDesignDay
9,19413915306.55729
1381,12423754066.702275
2,1, 7,21, 0,13, 0.00,60.00,SummerDesignDay
9,19355869976.28137
1381,12376788637.727807
2,1, 7,21, 0,14, 0.00,60.00,SummerDesignDay
9,19307844418.083646
1381,12051669807.411282
2,1, 7,21, 0,15, 0.00,60.00,SummerDesignDay
9,19196500045.85418
1381,12031163769.235489
2,1, 7,21, 0,16, 0.00,60.00,SummerDesignDay
9,19108830704.436899
1381,12030700384.056059
2,1, 7,21, 0,17, 0.00,60.00,SummerDesignDay
9,18992339189.886777
1381,12030237403.035706
2,1, 7,21, 0,18, 0.00,60.00,SummerDesignDay
9,19003681749.411909
1381,12126491676.38316
2,1, 7,21, 0,19, 0.00,60.00,SummerDesignDay
9,19032979856.53026
1381,12792918718.076279
2,1, 7,21, 0,20, 0.00,60.00,SummerDesignDay
9,18980641111.39811
1381,12826828033.378273
2,1, 7,21, 0,21, 0.00,60.00,SummerDesignDay
9,19303438181.722597
1381,12757464392.38896
2,1, 7,21, 0,22, 0.00,60.00,SummerDesignDay
9,19252800216.23335
1381,12793812384.277918
2,1, 7,21, 0,23, 0.00,60.00,SummerDesignDay
9,18394389039.432424
1381,12424571317.276623
2,1, 7,21, 0,24, 0.00,60.00,SummerDesignDay
9,17944250665.107664
1381,11739042779.618082
1,BUFFALO NIAGARA INTL AP ANN CLG .4% CONDNS WB=>MDB 1,  42.93, -78.73,  -5.00, 215.00
2,1, 7,21, 0, 1, 0.00,60.00,SummerDesignDay
9,16374447446.779854
1381,11483000019.200272
2,1, 7,21, 0, 2, 0.00,60.00,SummerDesignDay
9,15081428509.398356
1381,6642653744.682075
2,1, 7,21, 0, 3, 0.00,60.00,SummerDesignDay
9,15066208778.326098
1381,6457276570.74201
2,1, 7,21, 0, 4, 0.00,60.00,SummerDesignDay
9,15121011763.026455
1381,6457276570.74201
2,1, 7,21, 0, 5, 0.00,60.00,SummerDesignDay
9,15183037089.457875
1381,6457276570.74201
2,1, 7,21, 0, 6, 0.00,60.00,SummerDesignDay
9,15701778575.476336
1381,6457276570.74201
2,1, 7,21, 0, 7, 0.00,60.00,SummerDesignDay
9,18096002740.84597
1381,10415471456.233307
2,1, 7,21, 0, 8, 0.00,60.00,SummerDesignDay
9,20141259177.95144
1381,13050975788.175127
2,1, 7,21, 0, 9, 0.00,60.00,SummerDesignDay
9,20379062163.142309
1381,12719192097.896939
2,1, 7,21, 0,10, 0.00,60.00,SummerDesignDay
9,20450189395.15103
1381,12481369122.751091
2,1, 7,21, 0,11, 0.00,60.00,SummerDesignDay
9,20582201447.73827
1381,12096780628.053866
2,1, 7,21, 0,12, 0.00,60.00,SummerDesignDay
9,20777825434.015813
1381,12423754066.700686
2,1, 7,21, 0,13, 0.00,60.00,SummerDesignDay
9,20257599695.228898
1381,12376788637.726147
2,1, 7,21, 0,14, 0.00,60.00,SummerDesignDay
9,20250401369.262876
1381,12051669808.140418
2,1, 7,21, 0,15, 0.00,60.00,SummerDesignDay
9,20149849008.90914
1381,12031163769.222493
2,1, 7,21, 0,16, 0.00,60.00,SummerDesignDay
9,20551626493.117975
1381,12030700384.043225
2,1, 7,21, 0,17, 0.00,60.00,SummerDesignDay
9,20351674092.34632
1381,12030237403.023037
2,1, 7,21, 0,18, 0.00,60.00,SummerDesignDay
9,20251586716.768796
1381,12126491675.726994
2,1, 7,21, 0,19, 0.00,60.00,SummerDesignDay
9,20121714275.112459
1381,12792918718.07523
2,1, 7,21, 0,20, 0.00,60.00,SummerDesignDay
9,19946636264.576967
1381,12826828033.377282
2,1, 7,21, 0,21, 0.00,60.00,SummerDesignDay
9,20174077536.494314
1381,12757464392.387833
2,1, 7,21, 0,22, 0.00,60.00,SummerDesignDay
9,19774537112.238004
1381,12793812384.276944
2,1, 7,21, 0,23, 0.00,60.00,SummerDesignDay
9,18717531616.038137
1381,12424571317.276612
2,1, 7,21, 0,24, 0.00,60.00,SummerDesignDay
9,18106194594.7352
1381,11739042780.114342
1,BUFFALO NIAGARA INTL AP ANN HTG 99.6% CONDNS DB 1,  42.93, -78.73,  -5.00, 215.00
2,1, 1,21, 0, 1, 0.00,60.00,WinterDesignDay
9,3489046876.1197617
1381,22598265379.857889
2,1, 1,21, 0, 2, 0.00,60.00,WinterDesignDay
9,3103488022.341481
1381,16412027921.138163
2,1, 1,21, 0, 3, 0.00,60.00,WinterDesignDay
9,3103776036.701966
1381,16316995136.67537
2,1, 1,21, 0, 4, 0.00,60.00,WinterDesignDay
9,3103677402.074471
1381,16345926174.44542
2,1, 1,21, 0, 5, 0.00,60.00,WinterDesignDay
9,3103758290.526595
1381,16371164569.165892
2,1, 1,21, 0, 6, 0.00,60.00,WinterDesignDay
9,3133571276.1883494
1381,17026867420.619156
2,1, 1,21, 0, 7, 0.00,60.00,WinterDesignDay
9,3421840878.1236116
1381,23790600490.40323
2,1, 1,21, 0, 8, 0.00,60.00,WinterDesignDay
9,3431375796.875211
1381,23962314998.921827
2,1, 1,21, 0, 9, 0.00,60.00,WinterDesignDay
9,2762242594.3331325
1381,23890914607.083406
2,1, 1,21, 0,10, 0.00,60.00,WinterDesignDay
9,3746330839.0348379
1381,25239847986.535715
2,1, 1,21, 0,11, 0.00,60.00,WinterDesignDay
9,3627225370.95542
1381,25021288763.11618
2,1, 1,21, 0,12, 0.00,60.00,WinterDesignDay
9,3723387570.9329845
1381,25224417633.966135
2,1, 1,21, 0,13, 0.00,60.00,WinterDesignDay
9,3709263801.0393269
1381,25203497356.015058
2,1, 1,21, 0,14, 0.00,60.00,WinterDesignDay
9,3621407532.807215
1381,24942872492.96168
2,1, 1,21, 0,15, 0.00,60.00,WinterDesignDay
9,3522343464.897499
1381,24673391191.25062
2,1, 1,21, 0,16, 0.00,60.00,WinterDesignDay
9,3517939889.4024436
1381,24662636487.032304
2,1, 1,21, 0,17, 0.00,60.00,WinterDesignDay
9,3424001367.0262076
1381,24633251085.9382
2,1, 1,21, 0,18, 0.00,60.00,WinterDesignDay
9,4182988765.294298
1381,24640975357.03774
2,1, 1,21, 0,19, 0.00,60.00,WinterDesignDay
9,4483646260.290977
1381,25114870324.6688
2,1, 1,21, 0,20, 0.00,60.00,WinterDesignDay
9,4509457148.028293
1381,25103177786.63365
2,1, 1,21, 0,21, 0.00,60.00,WinterDesignDay
9,4388280030.29723
1381,25099907324.63187
2,1, 1,21, 0,22, 0.00,60.00,WinterDesignDay
9,4493909102.528793
1381,25089842534.487249
2,1, 1,21, 0,23, 0.00,60.00,WinterDesignDay
9,4113303651.746145
1381,23238195254.12114
2,1, 1,21, 0,24, 0.00,60.00,WinterDesignDay
9,3921864274.3616826
1381,23028678420.280725
End of Data
 Number of Records Written=         288
