Program Version,EnergyPlus, Version 9.5.0-de239b2e5f, YMD=2021.08.10 21:43
1,5,Environment Title[],Latitude[deg],Longitude[deg],Time Zone[],Elevation[m]
2,8,Day of Simulation[],Month[],Day of Month[],DST Indicator[1=yes 0=no],Hour[],StartMinute[],EndMinute[],DayType
3,5,Cumulative Day of Simulation[],Month[],Day of Month[],DST Indicator[1=yes 0=no],DayType  ! When Daily Report Variables Requested
4,2,Cumulative Days of Simulation[],Month[]  ! When Monthly Report Variables Requested
5,1,Cumulative Days of Simulation[] ! When Run Period Report Variables Requested
6,1,Calendar Year of Simulation[] ! When Annual Report Variables Requested
9,1,Electricity:Facility [J] !TimeStep
1381,1,NaturalGas:Facility [J] !TimeStep
End of Data Dictionary
1,BUFFALO NIAGARA INTL AP ANN CLG .4% CONDNS DB=>MWB 1 HVAC Sizing Pass 1,  42.93, -78.73,  -5.00, 215.00
2,1, 7,21, 0, 1, 0.00,60.00,SummerDesignDay
9,16273252299.378348
1381,11483000019.200272
2,1, 7,21, 0, 2, 0.00,60.00,SummerDesignDay
9,15022627712.702172
1381,6642653744.682075
2,1, 7,21, 0, 3, 0.00,60.00,SummerDesignDay
9,15036416658.859189
1381,6457276570.74201
2,1, 7,21, 0, 4, 0.00,60.00,SummerDesignDay
9,15147143115.72027
1381,6457276570.74201
2,1, 7,21, 0, 5, 0.00,60.00,SummerDesignDay
9,15244042716.98253
1381,6457276570.74201
2,1, 7,21, 0, 6, 0.00,60.00,SummerDesignDay
9,15811197954.79134
1381,6457276570.74201
2,1, 7,21, 0, 7, 0.00,60.00,SummerDesignDay
9,18129312487.516206
1381,10415471470.885617
2,1, 7,21, 0, 8, 0.00,60.00,SummerDesignDay
9,19755606684.296358
1381,13050975776.656273
2,1, 7,21, 0, 9, 0.00,60.00,SummerDesignDay
9,19396676398.165765
1381,12719192107.109074
2,1, 7,21, 0,10, 0.00,60.00,SummerDesignDay
9,19340797246.5332
1381,12481369122.716004
2,1, 7,21, 0,11, 0.00,60.00,SummerDesignDay
9,19285105963.549325
1381,12096780618.26883
2,1, 7,21, 0,12, 0.00,60.00,SummerDesignDay
9,19392536635.869886
1381,12423754066.680466
2,1, 7,21, 0,13, 0.00,60.00,SummerDesignDay
9,19333516356.189928
1381,12376788637.705029
2,1, 7,21, 0,14, 0.00,60.00,SummerDesignDay
9,19286007035.240388
1381,12051669817.404423
2,1, 7,21, 0,15, 0.00,60.00,SummerDesignDay
9,19174668786.63128
1381,12031163769.05735
2,1, 7,21, 0,16, 0.00,60.00,SummerDesignDay
9,19086266973.49709
1381,12030700383.88015
2,1, 7,21, 0,17, 0.00,60.00,SummerDesignDay
9,18968254393.041955
1381,12030237402.862074
2,1, 7,21, 0,18, 0.00,60.00,SummerDesignDay
9,18977630872.569089
1381,12126491667.39072
2,1, 7,21, 0,19, 0.00,60.00,SummerDesignDay
9,19003337482.468217
1381,12792918718.136963
2,1, 7,21, 0,20, 0.00,60.00,SummerDesignDay
9,18947020457.067258
1381,12826828033.435379
2,1, 7,21, 0,21, 0.00,60.00,SummerDesignDay
9,19267680582.18745
1381,12757464392.453995
2,1, 7,21, 0,22, 0.00,60.00,SummerDesignDay
9,19215516734.120508
1381,12793812384.333878
2,1, 7,21, 0,23, 0.00,60.00,SummerDesignDay
9,18347802264.38527
1381,12424571317.275202
2,1, 7,21, 0,24, 0.00,60.00,SummerDesignDay
9,17897084909.942647
1381,11739042739.810984
1,BUFFALO NIAGARA INTL AP ANN CLG .4% CONDNS WB=>MDB 1 HVAC Sizing Pass 1,  42.93, -78.73,  -5.00, 215.00
2,1, 7,21, 0, 1, 0.00,60.00,SummerDesignDay
9,16317530842.532198
1381,11483000019.200272
2,1, 7,21, 0, 2, 0.00,60.00,SummerDesignDay
9,15020584614.572426
1381,6642653744.682075
2,1, 7,21, 0, 3, 0.00,60.00,SummerDesignDay
9,15005180914.380766
1381,6457276570.74201
2,1, 7,21, 0, 4, 0.00,60.00,SummerDesignDay
9,15060149722.908915
1381,6457276570.74201
2,1, 7,21, 0, 5, 0.00,60.00,SummerDesignDay
9,15122453762.568867
1381,6457276570.74201
2,1, 7,21, 0, 6, 0.00,60.00,SummerDesignDay
9,15648049158.545165
1381,6457276570.74201
2,1, 7,21, 0, 7, 0.00,60.00,SummerDesignDay
9,18069103968.46353
1381,10415471470.885617
2,1, 7,21, 0, 8, 0.00,60.00,SummerDesignDay
9,20141294792.70757
1381,13050975776.656474
2,1, 7,21, 0, 9, 0.00,60.00,SummerDesignDay
9,20367244123.422346
1381,12719192108.013344
2,1, 7,21, 0,10, 0.00,60.00,SummerDesignDay
9,20450975823.216489
1381,12481369122.712559
2,1, 7,21, 0,11, 0.00,60.00,SummerDesignDay
9,20584419165.386796
1381,12096780617.309529
2,1, 7,21, 0,12, 0.00,60.00,SummerDesignDay
9,20781924583.446477
1381,12423754066.678517
2,1, 7,21, 0,13, 0.00,60.00,SummerDesignDay
9,20238709188.71585
1381,12376788637.702988
2,1, 7,21, 0,14, 0.00,60.00,SummerDesignDay
9,20234558554.936914
1381,12051669818.298151
2,1, 7,21, 0,15, 0.00,60.00,SummerDesignDay
9,20133219090.097539
1381,12031163769.041424
2,1, 7,21, 0,16, 0.00,60.00,SummerDesignDay
9,20559523506.95721
1381,12030700383.864418
2,1, 7,21, 0,17, 0.00,60.00,SummerDesignDay
9,20350071448.630098
1381,12030237402.846547
2,1, 7,21, 0,18, 0.00,60.00,SummerDesignDay
9,20246625508.169328
1381,12126491666.586419
2,1, 7,21, 0,19, 0.00,60.00,SummerDesignDay
9,20106168485.637845
1381,12792918718.135672
2,1, 7,21, 0,20, 0.00,60.00,SummerDesignDay
9,19920893867.95358
1381,12826828033.434166
2,1, 7,21, 0,21, 0.00,60.00,SummerDesignDay
9,20147178217.030939
1381,12757464392.45261
2,1, 7,21, 0,22, 0.00,60.00,SummerDesignDay
9,19741145863.539506
1381,12793812384.33269
2,1, 7,21, 0,23, 0.00,60.00,SummerDesignDay
9,18670246413.237154
1381,12424571317.27527
2,1, 7,21, 0,24, 0.00,60.00,SummerDesignDay
9,18063312525.828355
1381,11739042740.523922
1,BUFFALO NIAGARA INTL AP ANN HTG 99.6% CONDNS DB 1 HVAC Sizing Pass 1,  42.93, -78.73,  -5.00, 215.00
2,1, 1,21, 0, 1, 0.00,60.00,WinterDesignDay
9,3489050539.699529
1381,22598263926.646787
2,1, 1,21, 0, 2, 0.00,60.00,WinterDesignDay
9,3103488004.232902
1381,16412026467.921074
2,1, 1,21, 0, 3, 0.00,60.00,WinterDesignDay
9,3103776022.304372
1381,16316993683.463324
2,1, 1,21, 0, 4, 0.00,60.00,WinterDesignDay
9,3103677384.032442
1381,16345924721.237711
2,1, 1,21, 0, 5, 0.00,60.00,WinterDesignDay
9,3103758272.451741
1381,16371163115.960526
2,1, 1,21, 0, 6, 0.00,60.00,WinterDesignDay
9,3133571258.0272428
1381,17026865967.463582
2,1, 1,21, 0, 7, 0.00,60.00,WinterDesignDay
9,3421840859.9849026
1381,23790599037.322259
2,1, 1,21, 0, 8, 0.00,60.00,WinterDesignDay
9,3431375782.4005329
1381,23962313546.00109
2,1, 1,21, 0, 9, 0.00,60.00,WinterDesignDay
9,2762242576.1784346
1381,23890913153.78997
2,1, 1,21, 0,10, 0.00,60.00,WinterDesignDay
9,3746587880.8226268
1381,25239846533.668619
2,1, 1,21, 0,11, 0.00,60.00,WinterDesignDay
9,3626983664.6893928
1381,25021287309.787584
2,1, 1,21, 0,12, 0.00,60.00,WinterDesignDay
9,3723374830.3791515
1381,25224416180.669984
2,1, 1,21, 0,13, 0.00,60.00,WinterDesignDay
9,3709056470.097749
1381,25203495902.690084
2,1, 1,21, 0,14, 0.00,60.00,WinterDesignDay
9,3621597735.739857
1381,24942871039.684797
2,1, 1,21, 0,15, 0.00,60.00,WinterDesignDay
9,3522426844.4198839
1381,24673389737.934946
2,1, 1,21, 0,16, 0.00,60.00,WinterDesignDay
9,3517916646.588988
1381,24662635033.760389
2,1, 1,21, 0,17, 0.00,60.00,WinterDesignDay
9,3424032838.8653829
1381,24633249632.981378
2,1, 1,21, 0,18, 0.00,60.00,WinterDesignDay
9,4183038297.3702099
1381,24640973903.77215
2,1, 1,21, 0,19, 0.00,60.00,WinterDesignDay
9,4483677834.12621
1381,25114868871.40397
2,1, 1,21, 0,20, 0.00,60.00,WinterDesignDay
9,4510048631.410756
1381,25103176333.333295
2,1, 1,21, 0,21, 0.00,60.00,WinterDesignDay
9,4387848943.2336
1381,25099905871.330816
2,1, 1,21, 0,22, 0.00,60.00,WinterDesignDay
9,4493875339.918574
1381,25089841081.22498
2,1, 1,21, 0,23, 0.00,60.00,WinterDesignDay
9,4112943811.2595369
1381,23238193810.313306
2,1, 1,21, 0,24, 0.00,60.00,WinterDesignDay
9,3922174682.970093
1381,23028676968.865
1,BUFFALO NIAGARA INTL AP ANN CLG .4% CONDNS DB=>MWB 1,  42.93, -78.73,  -5.00, 215.00
2,1, 7,21, 0, 1, 0.00,60.00,SummerDesignDay
9,16330518575.54648
1381,11483000019.200272
2,1, 7,21, 0, 2, 0.00,60.00,SummerDesignDay
9,15083388736.598687
1381,6642653744.682075
2,1, 7,21, 0, 3, 0.00,60.00,SummerDesignDay
9,15097170592.666317
1381,6457276570.74201
2,1, 7,21, 0, 4, 0.00,60.00,SummerDesignDay
9,15207347637.955145
1381,6457276570.74201
2,1, 7,21, 0, 5, 0.00,60.00,SummerDesignDay
9,15303723734.811644
1381,6457276570.74201
2,1, 7,21, 0, 6, 0.00,60.00,SummerDesignDay
9,15866895213.908139
1381,6457276570.74201
2,1, 7,21, 0, 7, 0.00,60.00,SummerDesignDay
9,18151837572.532938
1381,10415471470.885617
2,1, 7,21, 0, 8, 0.00,60.00,SummerDesignDay
9,19763212559.598394
1381,13050975776.656474
2,1, 7,21, 0, 9, 0.00,60.00,SummerDesignDay
9,19414668960.110795
1381,12719192107.108887
2,1, 7,21, 0,10, 0.00,60.00,SummerDesignDay
9,19359039652.85267
1381,12481369122.732428
2,1, 7,21, 0,11, 0.00,60.00,SummerDesignDay
9,19304848388.85658
1381,12096780618.25229
2,1, 7,21, 0,12, 0.00,60.00,SummerDesignDay
9,19413914515.16555
1381,12423754066.680432
2,1, 7,21, 0,13, 0.00,60.00,SummerDesignDay
9,19355869863.569387
1381,12376788637.70499
2,1, 7,21, 0,14, 0.00,60.00,SummerDesignDay
9,19307845208.50777
1381,12051669817.42006
2,1, 7,21, 0,15, 0.00,60.00,SummerDesignDay
9,19196498818.924825
1381,12031163769.057072
2,1, 7,21, 0,16, 0.00,60.00,SummerDesignDay
9,19108831906.515439
1381,12030700383.879876
2,1, 7,21, 0,17, 0.00,60.00,SummerDesignDay
9,18992338380.071298
1381,12030237402.861802
2,1, 7,21, 0,18, 0.00,60.00,SummerDesignDay
9,19003682776.711256
1381,12126491667.376643
2,1, 7,21, 0,19, 0.00,60.00,SummerDesignDay
9,19032980467.925905
1381,12792918718.13694
2,1, 7,21, 0,20, 0.00,60.00,SummerDesignDay
9,18980632962.45463
1381,12826828033.43536
2,1, 7,21, 0,21, 0.00,60.00,SummerDesignDay
9,19303431991.71026
1381,12757464392.453969
2,1, 7,21, 0,22, 0.00,60.00,SummerDesignDay
9,19252798034.55317
1381,12793812384.333855
2,1, 7,21, 0,23, 0.00,60.00,SummerDesignDay
9,18394388000.06824
1381,12424571317.275265
2,1, 7,21, 0,24, 0.00,60.00,SummerDesignDay
9,17944249668.057306
1381,11739042739.904076
1,BUFFALO NIAGARA INTL AP ANN CLG .4% CONDNS WB=>MDB 1,  42.93, -78.73,  -5.00, 215.00
2,1, 7,21, 0, 1, 0.00,60.00,SummerDesignDay
9,16374447270.630255
1381,11483000019.200272
2,1, 7,21, 0, 2, 0.00,60.00,SummerDesignDay
9,15081428323.170535
1381,6642653744.682075
2,1, 7,21, 0, 3, 0.00,60.00,SummerDesignDay
9,15066208585.410086
1381,6457276570.74201
2,1, 7,21, 0, 4, 0.00,60.00,SummerDesignDay
9,15121011635.192902
1381,6457276570.74201
2,1, 7,21, 0, 5, 0.00,60.00,SummerDesignDay
9,15183036891.942942
1381,6457276570.74201
2,1, 7,21, 0, 6, 0.00,60.00,SummerDesignDay
9,15701778022.003369
1381,6457276570.74201
2,1, 7,21, 0, 7, 0.00,60.00,SummerDesignDay
9,18096001985.950059
1381,11408048706.52129
2,1, 7,21, 0, 8, 0.00,60.00,SummerDesignDay
9,20141257850.520704
1381,12827009631.432438
2,1, 7,21, 0, 9, 0.00,60.00,SummerDesignDay
9,20380829000.93832
1381,12792976614.165554
2,1, 7,21, 0,10, 0.00,60.00,SummerDesignDay
9,20450105047.04828
1381,12424285362.155398
2,1, 7,21, 0,11, 0.00,60.00,SummerDesignDay
9,20581567820.25643
1381,12377340691.220128
2,1, 7,21, 0,12, 0.00,60.00,SummerDesignDay
9,20778164624.48292
1381,12424915660.329144
2,1, 7,21, 0,13, 0.00,60.00,SummerDesignDay
9,20255890266.061029
1381,12288982468.837454
2,1, 7,21, 0,14, 0.00,60.00,SummerDesignDay
9,20252089814.509054
1381,12107466125.074769
2,1, 7,21, 0,15, 0.00,60.00,SummerDesignDay
9,20150145398.062314
1381,11955089731.504546
2,1, 7,21, 0,16, 0.00,60.00,SummerDesignDay
9,20551632233.318727
1381,11954875811.908452
2,1, 7,21, 0,17, 0.00,60.00,SummerDesignDay
9,20351490763.143724
1381,11954658326.861958
2,1, 7,21, 0,18, 0.00,60.00,SummerDesignDay
9,20250802337.15705
1381,12377320454.534005
2,1, 7,21, 0,19, 0.00,60.00,SummerDesignDay
9,20119722765.728395
1381,12793776237.404118
2,1, 7,21, 0,20, 0.00,60.00,SummerDesignDay
9,19946626582.97491
1381,12827630314.869235
2,1, 7,21, 0,21, 0.00,60.00,SummerDesignDay
9,20172686372.97832
1381,12469202035.612172
2,1, 7,21, 0,22, 0.00,60.00,SummerDesignDay
9,19776253772.847219
1381,12792849325.720166
2,1, 7,21, 0,23, 0.00,60.00,SummerDesignDay
9,18717646497.333715
1381,12424550297.338158
2,1, 7,21, 0,24, 0.00,60.00,SummerDesignDay
9,18106142989.814268
1381,11890420820.95921
1,BUFFALO NIAGARA INTL AP ANN HTG 99.6% CONDNS DB 1,  42.93, -78.73,  -5.00, 215.00
2,1, 1,21, 0, 1, 0.00,60.00,WinterDesignDay
9,3489046854.236095
1381,22598263926.646787
2,1, 1,21, 0, 2, 0.00,60.00,WinterDesignDay
9,3103488000.457814
1381,16412026467.921074
2,1, 1,21, 0, 3, 0.00,60.00,WinterDesignDay
9,3103776014.818299
1381,16316993683.463324
2,1, 1,21, 0, 4, 0.00,60.00,WinterDesignDay
9,3103677380.1908047
1381,16345924721.237711
2,1, 1,21, 0, 5, 0.00,60.00,WinterDesignDay
9,3103758268.6429278
1381,16371163115.960526
2,1, 1,21, 0, 6, 0.00,60.00,WinterDesignDay
9,3133571254.3046829
1381,17026865967.463582
2,1, 1,21, 0, 7, 0.00,60.00,WinterDesignDay
9,3421840856.267421
1381,23790599037.322259
2,1, 1,21, 0, 8, 0.00,60.00,WinterDesignDay
9,3431375774.9681456
1381,23962313546.00109
2,1, 1,21, 0, 9, 0.00,60.00,WinterDesignDay
9,2762242572.4495108
1381,23890913153.78997
2,1, 1,21, 0,10, 0.00,60.00,WinterDesignDay
9,3746330817.151413
1381,25239846533.668619
2,1, 1,21, 0,11, 0.00,60.00,WinterDesignDay
9,3627225349.091124
1381,25021287309.787584
2,1, 1,21, 0,12, 0.00,60.00,WinterDesignDay
9,3723387549.027958
1381,25224416180.669984
2,1, 1,21, 0,13, 0.00,60.00,WinterDesignDay
9,3709263779.1555626
1381,25203495902.690084
2,1, 1,21, 0,14, 0.00,60.00,WinterDesignDay
9,3621407510.9459116
1381,24942871039.684797
2,1, 1,21, 0,15, 0.00,60.00,WinterDesignDay
9,3522343443.0141289
1381,24673389737.93478
2,1, 1,21, 0,16, 0.00,60.00,WinterDesignDay
9,3517939867.33687
1381,24662635033.721338
2,1, 1,21, 0,17, 0.00,60.00,WinterDesignDay
9,3424001345.1277425
1381,24633249632.936197
2,1, 1,21, 0,18, 0.00,60.00,WinterDesignDay
9,4182988743.369816
1381,24640973903.73808
2,1, 1,21, 0,19, 0.00,60.00,WinterDesignDay
9,4483646238.385374
1381,25114868871.40397
2,1, 1,21, 0,20, 0.00,60.00,WinterDesignDay
9,4509457126.439219
1381,25103176333.333295
2,1, 1,21, 0,21, 0.00,60.00,WinterDesignDay
9,4388280008.058707
1381,25099905871.330816
2,1, 1,21, 0,22, 0.00,60.00,WinterDesignDay
9,4493909080.767671
1381,25089841081.22498
2,1, 1,21, 0,23, 0.00,60.00,WinterDesignDay
9,4113303629.832752
1381,23238193811.849237
2,1, 1,21, 0,24, 0.00,60.00,WinterDesignDay
9,3921864252.19181
1381,23028676967.243909
End of Data
 Number of Records Written=         288
