Program Version,EnergyPlus, Version 9.5.0-de239b2e5f, YMD=2021.08.10 22:04
1,5,Environment Title[],Latitude[deg],Longitude[deg],Time Zone[],Elevation[m]
2,8,Day of Simulation[],Month[],Day of Month[],DST Indicator[1=yes 0=no],Hour[],StartMinute[],EndMinute[],DayType
3,5,Cumulative Day of Simulation[],Month[],Day of Month[],DST Indicator[1=yes 0=no],DayType  ! When Daily Report Variables Requested
4,2,Cumulative Days of Simulation[],Month[]  ! When Monthly Report Variables Requested
5,1,Cumulative Days of Simulation[] ! When Run Period Report Variables Requested
6,1,Calendar Year of Simulation[] ! When Annual Report Variables Requested
9,1,Electricity:Facility [J] !TimeStep
1381,1,NaturalGas:Facility [J] !TimeStep
End of Data Dictionary
1,BUFFALO NIAGARA INTL AP ANN CLG .4% CONDNS DB=>MWB 1 HVAC Sizing Pass 1,  42.93, -78.73,  -5.00, 215.00
2,1, 7,21, 0, 1, 0.00,60.00,SummerDesignDay
9,16273252300.043009
1381,11483000019.200272
2,1, 7,21, 0, 2, 0.00,60.00,SummerDesignDay
9,15022627689.55809
1381,6642653744.682075
2,1, 7,21, 0, 3, 0.00,60.00,SummerDesignDay
9,15036416666.288094
1381,6457276570.74201
2,1, 7,21, 0, 4, 0.00,60.00,SummerDesignDay
9,15147143127.708653
1381,6457276570.74201
2,1, 7,21, 0, 5, 0.00,60.00,SummerDesignDay
9,15244042694.987305
1381,6457276570.74201
2,1, 7,21, 0, 6, 0.00,60.00,SummerDesignDay
9,15811197954.31544
1381,6457276570.74201
2,1, 7,21, 0, 7, 0.00,60.00,SummerDesignDay
9,18129312516.812978
1381,10415471470.885617
2,1, 7,21, 0, 8, 0.00,60.00,SummerDesignDay
9,19755606714.606954
1381,13050975776.656273
2,1, 7,21, 0, 9, 0.00,60.00,SummerDesignDay
9,19396676442.08036
1381,12719192107.109074
2,1, 7,21, 0,10, 0.00,60.00,SummerDesignDay
9,19340797228.86815
1381,12481369122.716004
2,1, 7,21, 0,11, 0.00,60.00,SummerDesignDay
9,19285105939.754304
1381,12096780618.26883
2,1, 7,21, 0,12, 0.00,60.00,SummerDesignDay
9,19392536657.393854
1381,12423754066.680466
2,1, 7,21, 0,13, 0.00,60.00,SummerDesignDay
9,19333516376.859518
1381,12376788637.705029
2,1, 7,21, 0,14, 0.00,60.00,SummerDesignDay
9,19286007132.898096
1381,12051669817.404423
2,1, 7,21, 0,15, 0.00,60.00,SummerDesignDay
9,19174668725.315004
1381,12031163769.05735
2,1, 7,21, 0,16, 0.00,60.00,SummerDesignDay
9,19086267072.068769
1381,12030700383.88015
2,1, 7,21, 0,17, 0.00,60.00,SummerDesignDay
9,18968253603.638647
1381,12030237402.862074
2,1, 7,21, 0,18, 0.00,60.00,SummerDesignDay
9,18977630088.23788
1381,12126491667.39072
2,1, 7,21, 0,19, 0.00,60.00,SummerDesignDay
9,19003337480.10682
1381,12792918718.136963
2,1, 7,21, 0,20, 0.00,60.00,SummerDesignDay
9,18947020397.2941
1381,12826828033.435379
2,1, 7,21, 0,21, 0.00,60.00,SummerDesignDay
9,19267680562.871629
1381,12757464392.453995
2,1, 7,21, 0,22, 0.00,60.00,SummerDesignDay
9,19215516689.069837
1381,12793812384.333878
2,1, 7,21, 0,23, 0.00,60.00,SummerDesignDay
9,18347802172.339345
1381,12424571317.275202
2,1, 7,21, 0,24, 0.00,60.00,SummerDesignDay
9,17897084908.07268
1381,11739042739.810984
1,BUFFALO NIAGARA INTL AP ANN CLG .4% CONDNS WB=>MDB 1 HVAC Sizing Pass 1,  42.93, -78.73,  -5.00, 215.00
2,1, 7,21, 0, 1, 0.00,60.00,SummerDesignDay
9,16317738544.167878
1381,11483000019.200272
2,1, 7,21, 0, 2, 0.00,60.00,SummerDesignDay
9,15020719287.71887
1381,6642653744.682075
2,1, 7,21, 0, 3, 0.00,60.00,SummerDesignDay
9,15005180877.48823
1381,6457276570.74201
2,1, 7,21, 0, 4, 0.00,60.00,SummerDesignDay
9,15060149710.473826
1381,6457276570.74201
2,1, 7,21, 0, 5, 0.00,60.00,SummerDesignDay
9,15122453725.879057
1381,6457276570.74201
2,1, 7,21, 0, 6, 0.00,60.00,SummerDesignDay
9,15647863736.222357
1381,6457276570.74201
2,1, 7,21, 0, 7, 0.00,60.00,SummerDesignDay
9,18069289317.13802
1381,10415471470.88562
2,1, 7,21, 0, 8, 0.00,60.00,SummerDesignDay
9,20141273268.66352
1381,13050975776.65645
2,1, 7,21, 0, 9, 0.00,60.00,SummerDesignDay
9,20367244219.632535
1381,12719192107.10891
2,1, 7,21, 0,10, 0.00,60.00,SummerDesignDay
9,20450975913.604497
1381,12481369122.715996
2,1, 7,21, 0,11, 0.00,60.00,SummerDesignDay
9,20584419113.60601
1381,12096780618.269001
2,1, 7,21, 0,12, 0.00,60.00,SummerDesignDay
9,20781924584.366239
1381,12423754066.680466
2,1, 7,21, 0,13, 0.00,60.00,SummerDesignDay
9,20238710076.707914
1381,12376788637.705029
2,1, 7,21, 0,14, 0.00,60.00,SummerDesignDay
9,20234558314.95633
1381,12051669817.404265
2,1, 7,21, 0,15, 0.00,60.00,SummerDesignDay
9,20133219175.967046
1381,12031163769.057358
2,1, 7,21, 0,16, 0.00,60.00,SummerDesignDay
9,20559523320.97119
1381,12030700383.880152
2,1, 7,21, 0,17, 0.00,60.00,SummerDesignDay
9,20350071516.183115
1381,12030237402.862076
2,1, 7,21, 0,18, 0.00,60.00,SummerDesignDay
9,20246625074.516599
1381,12126491667.390862
2,1, 7,21, 0,19, 0.00,60.00,SummerDesignDay
9,20106168536.17315
1381,12792918718.136967
2,1, 7,21, 0,20, 0.00,60.00,SummerDesignDay
9,19920893833.471475
1381,12826828033.43538
2,1, 7,21, 0,21, 0.00,60.00,SummerDesignDay
9,20147178261.995149
1381,12757464392.453995
2,1, 7,21, 0,22, 0.00,60.00,SummerDesignDay
9,19741145845.782106
1381,12793812384.333878
2,1, 7,21, 0,23, 0.00,60.00,SummerDesignDay
9,18670246399.81948
1381,12424571317.275204
2,1, 7,21, 0,24, 0.00,60.00,SummerDesignDay
9,18063312559.40839
1381,11739042739.810873
1,BUFFALO NIAGARA INTL AP ANN HTG 99.6% CONDNS DB 1 HVAC Sizing Pass 1,  42.93, -78.73,  -5.00, 215.00
2,1, 1,21, 0, 1, 0.00,60.00,WinterDesignDay
9,3489050539.699568
1381,22598263926.645738
2,1, 1,21, 0, 2, 0.00,60.00,WinterDesignDay
9,3103488004.2329409
1381,16412026467.920207
2,1, 1,21, 0, 3, 0.00,60.00,WinterDesignDay
9,3103776022.304411
1381,16316993683.462485
2,1, 1,21, 0, 4, 0.00,60.00,WinterDesignDay
9,3103677384.0324804
1381,16345924721.23687
2,1, 1,21, 0, 5, 0.00,60.00,WinterDesignDay
9,3103758272.4517805
1381,16371163115.95978
2,1, 1,21, 0, 6, 0.00,60.00,WinterDesignDay
9,3133571258.0272819
1381,17026865967.463223
2,1, 1,21, 0, 7, 0.00,60.00,WinterDesignDay
9,3421840859.984536
1381,23790599037.322656
2,1, 1,21, 0, 8, 0.00,60.00,WinterDesignDay
9,3431375782.40066
1381,23962313546.00143
2,1, 1,21, 0, 9, 0.00,60.00,WinterDesignDay
9,2762242576.1783168
1381,23890913153.79026
2,1, 1,21, 0,10, 0.00,60.00,WinterDesignDay
9,3746587880.8225138
1381,25239846533.668893
2,1, 1,21, 0,11, 0.00,60.00,WinterDesignDay
9,3626983664.6890909
1381,25021287309.78785
2,1, 1,21, 0,12, 0.00,60.00,WinterDesignDay
9,3723374830.3792555
1381,25224416180.670194
2,1, 1,21, 0,13, 0.00,60.00,WinterDesignDay
9,3709056470.0976417
1381,25203495902.690305
2,1, 1,21, 0,14, 0.00,60.00,WinterDesignDay
9,3621597735.739523
1381,24942871039.685026
2,1, 1,21, 0,15, 0.00,60.00,WinterDesignDay
9,3522426844.41977
1381,24673389737.935167
2,1, 1,21, 0,16, 0.00,60.00,WinterDesignDay
9,3517916646.589095
1381,24662635033.76057
2,1, 1,21, 0,17, 0.00,60.00,WinterDesignDay
9,3424032838.8652808
1381,24633249632.981595
2,1, 1,21, 0,18, 0.00,60.00,WinterDesignDay
9,4183038297.3701078
1381,24640973903.772329
2,1, 1,21, 0,19, 0.00,60.00,WinterDesignDay
9,4483677834.126248
1381,25114868871.404169
2,1, 1,21, 0,20, 0.00,60.00,WinterDesignDay
9,4510048631.410644
1381,25103176333.333478
2,1, 1,21, 0,21, 0.00,60.00,WinterDesignDay
9,4387848943.233547
1381,25099905871.330965
2,1, 1,21, 0,22, 0.00,60.00,WinterDesignDay
9,4493875339.919028
1381,25089841081.225168
2,1, 1,21, 0,23, 0.00,60.00,WinterDesignDay
9,4112943811.057997
1381,23238193810.312044
2,1, 1,21, 0,24, 0.00,60.00,WinterDesignDay
9,3922174682.7727906
1381,23028676968.863924
1,BUFFALO NIAGARA INTL AP ANN CLG .4% CONDNS DB=>MWB 1,  42.93, -78.73,  -5.00, 215.00
2,1, 7,21, 0, 1, 0.00,60.00,SummerDesignDay
9,16330254094.288929
1381,11483000019.200272
2,1, 7,21, 0, 2, 0.00,60.00,SummerDesignDay
9,15083275732.336
1381,6642653744.682075
2,1, 7,21, 0, 3, 0.00,60.00,SummerDesignDay
9,15097170596.873862
1381,6457276570.74201
2,1, 7,21, 0, 4, 0.00,60.00,SummerDesignDay
9,15207347538.82238
1381,6457276570.74201
2,1, 7,21, 0, 5, 0.00,60.00,SummerDesignDay
9,15303723711.468594
1381,6457276570.74201
2,1, 7,21, 0, 6, 0.00,60.00,SummerDesignDay
9,15866895231.86295
1381,6457276570.74201
2,1, 7,21, 0, 7, 0.00,60.00,SummerDesignDay
9,18151839632.095685
1381,11408048706.521302
2,1, 7,21, 0, 8, 0.00,60.00,SummerDesignDay
9,19763218521.521837
1381,12827009631.42542
2,1, 7,21, 0, 9, 0.00,60.00,SummerDesignDay
9,19416436821.24635
1381,12792976614.210423
2,1, 7,21, 0,10, 0.00,60.00,SummerDesignDay
9,19358955594.358026
1381,12424285362.209939
2,1, 7,21, 0,11, 0.00,60.00,SummerDesignDay
9,19304214106.971029
1381,12377340691.273087
2,1, 7,21, 0,12, 0.00,60.00,SummerDesignDay
9,19414254581.386034
1381,12424915660.37899
2,1, 7,21, 0,13, 0.00,60.00,SummerDesignDay
9,19354161429.186338
1381,12288982377.902237
2,1, 7,21, 0,14, 0.00,60.00,SummerDesignDay
9,19309532325.041685
1381,12107466218.01401
2,1, 7,21, 0,15, 0.00,60.00,SummerDesignDay
9,19196795881.49893
1381,11955089731.75867
2,1, 7,21, 0,16, 0.00,60.00,SummerDesignDay
9,19108835996.843915
1381,11954875812.16677
2,1, 7,21, 0,17, 0.00,60.00,SummerDesignDay
9,18992155321.207975
1381,11954658327.120842
2,1, 7,21, 0,18, 0.00,60.00,SummerDesignDay
9,19002895226.309045
1381,12377320454.74362
2,1, 7,21, 0,19, 0.00,60.00,SummerDesignDay
9,19030987047.584085
1381,12793776237.443787
2,1, 7,21, 0,20, 0.00,60.00,SummerDesignDay
9,18980632321.770158
1381,12827630314.906327
2,1, 7,21, 0,21, 0.00,60.00,SummerDesignDay
9,19302049063.688837
1381,12469202035.66026
2,1, 7,21, 0,22, 0.00,60.00,SummerDesignDay
9,19254517068.76998
1381,12792849325.864766
2,1, 7,21, 0,23, 0.00,60.00,SummerDesignDay
9,18394504141.94226
1381,12424550297.266045
2,1, 7,21, 0,24, 0.00,60.00,SummerDesignDay
9,17944199099.090734
1381,11890420820.9952
1,BUFFALO NIAGARA INTL AP ANN CLG .4% CONDNS WB=>MDB 1,  42.93, -78.73,  -5.00, 215.00
2,1, 7,21, 0, 1, 0.00,60.00,SummerDesignDay
9,16374711746.901984
1381,11483000019.200272
2,1, 7,21, 0, 2, 0.00,60.00,SummerDesignDay
9,15081541302.661076
1381,6642653744.682075
2,1, 7,21, 0, 3, 0.00,60.00,SummerDesignDay
9,15066208589.999728
1381,6457276570.74201
2,1, 7,21, 0, 4, 0.00,60.00,SummerDesignDay
9,15121011634.639628
1381,6457276570.74201
2,1, 7,21, 0, 5, 0.00,60.00,SummerDesignDay
9,15183036880.569043
1381,6457276570.74201
2,1, 7,21, 0, 6, 0.00,60.00,SummerDesignDay
9,15701778006.50245
1381,6457276570.74201
2,1, 7,21, 0, 7, 0.00,60.00,SummerDesignDay
9,18091943944.13024
1381,10415471456.233309
2,1, 7,21, 0, 8, 0.00,60.00,SummerDesignDay
9,20141262633.45465
1381,13050975788.175107
2,1, 7,21, 0, 9, 0.00,60.00,SummerDesignDay
9,20376026179.381189
1381,12719192096.966397
2,1, 7,21, 0,10, 0.00,60.00,SummerDesignDay
9,20453132320.1177
1381,12481369122.754628
2,1, 7,21, 0,11, 0.00,60.00,SummerDesignDay
9,20580283152.648286
1381,12096780629.04103
2,1, 7,21, 0,12, 0.00,60.00,SummerDesignDay
9,20776941578.690587
1381,12423754066.702698
2,1, 7,21, 0,13, 0.00,60.00,SummerDesignDay
9,20257597262.987367
1381,12376788637.728253
2,1, 7,21, 0,14, 0.00,60.00,SummerDesignDay
9,20251453712.650068
1381,12051669807.217862
2,1, 7,21, 0,15, 0.00,60.00,SummerDesignDay
9,20149825637.698846
1381,12031163769.238942
2,1, 7,21, 0,16, 0.00,60.00,SummerDesignDay
9,20553024762.56815
1381,12030700384.059466
2,1, 7,21, 0,17, 0.00,60.00,SummerDesignDay
9,20349277641.766695
1381,12030237403.039067
2,1, 7,21, 0,18, 0.00,60.00,SummerDesignDay
9,20253025306.791345
1381,12126491676.55722
2,1, 7,21, 0,19, 0.00,60.00,SummerDesignDay
9,20122397299.66319
1381,12792918718.076558
2,1, 7,21, 0,20, 0.00,60.00,SummerDesignDay
9,19945147204.13564
1381,12826828033.378533
2,1, 7,21, 0,21, 0.00,60.00,SummerDesignDay
9,20175724032.299127
1381,12757464392.389258
2,1, 7,21, 0,22, 0.00,60.00,SummerDesignDay
9,19774536426.828035
1381,12793812384.278174
2,1, 7,21, 0,23, 0.00,60.00,SummerDesignDay
9,18714531340.181455
1381,12424571317.276539
2,1, 7,21, 0,24, 0.00,60.00,SummerDesignDay
9,18109206974.1434
1381,11739042779.378888
1,BUFFALO NIAGARA INTL AP ANN HTG 99.6% CONDNS DB 1,  42.93, -78.73,  -5.00, 215.00
2,1, 1,21, 0, 1, 0.00,60.00,WinterDesignDay
9,3489046854.2361338
1381,22598263926.645738
2,1, 1,21, 0, 2, 0.00,60.00,WinterDesignDay
9,3103488000.457853
1381,16412026467.920207
2,1, 1,21, 0, 3, 0.00,60.00,WinterDesignDay
9,3103776014.8175456
1381,16316993683.462485
2,1, 1,21, 0, 4, 0.00,60.00,WinterDesignDay
9,3103677380.189979
1381,16345924721.23687
2,1, 1,21, 0, 5, 0.00,60.00,WinterDesignDay
9,3103758268.642968
1381,16371163115.95978
2,1, 1,21, 0, 6, 0.00,60.00,WinterDesignDay
9,3133571254.3047239
1381,17026865967.463223
2,1, 1,21, 0, 7, 0.00,60.00,WinterDesignDay
9,3421840856.267311
1381,23790599037.322656
2,1, 1,21, 0, 8, 0.00,60.00,WinterDesignDay
9,3431375774.9680078
1381,23962313546.00143
2,1, 1,21, 0, 9, 0.00,60.00,WinterDesignDay
9,2762242572.4496338
1381,23890913153.79026
2,1, 1,21, 0,10, 0.00,60.00,WinterDesignDay
9,3746330817.1524579
1381,25239846533.668893
2,1, 1,21, 0,11, 0.00,60.00,WinterDesignDay
9,3627225349.092155
1381,25021287309.78785
2,1, 1,21, 0,12, 0.00,60.00,WinterDesignDay
9,3723387549.0291779
1381,25224416180.670194
2,1, 1,21, 0,13, 0.00,60.00,WinterDesignDay
9,3709263779.158468
1381,25203495902.690305
2,1, 1,21, 0,14, 0.00,60.00,WinterDesignDay
9,3621407510.9498736
1381,24942871039.685026
2,1, 1,21, 0,15, 0.00,60.00,WinterDesignDay
9,3522343443.0240409
1381,24673389737.935
2,1, 1,21, 0,16, 0.00,60.00,WinterDesignDay
9,3517939867.3614828
1381,24662635033.72152
2,1, 1,21, 0,17, 0.00,60.00,WinterDesignDay
9,3424001345.2081539
1381,24633249632.936414
2,1, 1,21, 0,18, 0.00,60.00,WinterDesignDay
9,4182988743.5927464
1381,24640973903.73826
2,1, 1,21, 0,19, 0.00,60.00,WinterDesignDay
9,4483646238.5066809
1381,25114868871.404169
2,1, 1,21, 0,20, 0.00,60.00,WinterDesignDay
9,4509457126.162734
1381,25103176333.333478
2,1, 1,21, 0,21, 0.00,60.00,WinterDesignDay
9,4388280008.392714
1381,25099905871.330965
2,1, 1,21, 0,22, 0.00,60.00,WinterDesignDay
9,4493909080.840186
1381,25089841081.225168
2,1, 1,21, 0,23, 0.00,60.00,WinterDesignDay
9,4113303629.874294
1381,23238193811.847974
2,1, 1,21, 0,24, 0.00,60.00,WinterDesignDay
9,3921864251.6765348
1381,23028676967.24283
End of Data
 Number of Records Written=         288
