Program Version,EnergyPlus, Version 9.5.0-de239b2e5f, YMD=2021.08.10 21:38
1,5,Environment Title[],Latitude[deg],Longitude[deg],Time Zone[],Elevation[m]
2,8,Day of Simulation[],Month[],Day of Month[],DST Indicator[1=yes 0=no],Hour[],StartMinute[],EndMinute[],DayType
3,5,Cumulative Day of Simulation[],Month[],Day of Month[],DST Indicator[1=yes 0=no],DayType  ! When Daily Report Variables Requested
4,2,Cumulative Days of Simulation[],Month[]  ! When Monthly Report Variables Requested
5,1,Cumulative Days of Simulation[] ! When Run Period Report Variables Requested
6,1,Calendar Year of Simulation[] ! When Annual Report Variables Requested
9,1,Electricity:Facility [J] !TimeStep
1381,1,NaturalGas:Facility [J] !TimeStep
End of Data Dictionary
1,BUFFALO NIAGARA INTL AP ANN CLG .4% CONDNS DB=>MWB 1 HVAC Sizing Pass 1,  42.93, -78.73,  -5.00, 215.00
2,1, 7,21, 0, 1, 0.00,60.00,SummerDesignDay
9,16273252485.169394
1381,11483000019.200272
2,1, 7,21, 0, 2, 0.00,60.00,SummerDesignDay
9,15022627901.121766
1381,6642653744.682075
2,1, 7,21, 0, 3, 0.00,60.00,SummerDesignDay
9,15036416872.829386
1381,6457276570.74201
2,1, 7,21, 0, 4, 0.00,60.00,SummerDesignDay
9,15147143345.780373
1381,6457276570.74201
2,1, 7,21, 0, 5, 0.00,60.00,SummerDesignDay
9,15244042905.390679
1381,6457276570.74201
2,1, 7,21, 0, 6, 0.00,60.00,SummerDesignDay
9,15811198491.924584
1381,6457276570.74201
2,1, 7,21, 0, 7, 0.00,60.00,SummerDesignDay
9,18129313359.00369
1381,10415471470.885617
2,1, 7,21, 0, 8, 0.00,60.00,SummerDesignDay
9,19755607214.22732
1381,13050975776.656273
2,1, 7,21, 0, 9, 0.00,60.00,SummerDesignDay
9,19396676792.985479
1381,12719192107.109074
2,1, 7,21, 0,10, 0.00,60.00,SummerDesignDay
9,19340797653.333444
1381,12481369122.716004
2,1, 7,21, 0,11, 0.00,60.00,SummerDesignDay
9,19285106126.18853
1381,12096780618.26883
2,1, 7,21, 0,12, 0.00,60.00,SummerDesignDay
9,19392536805.612607
1381,12423754066.680466
2,1, 7,21, 0,13, 0.00,60.00,SummerDesignDay
9,19333516597.754079
1381,12376788637.705029
2,1, 7,21, 0,14, 0.00,60.00,SummerDesignDay
9,19286007175.053075
1381,12051669817.404423
2,1, 7,21, 0,15, 0.00,60.00,SummerDesignDay
9,19174668864.5638
1381,12031163769.05735
2,1, 7,21, 0,16, 0.00,60.00,SummerDesignDay
9,19086267014.226114
1381,12030700383.88015
2,1, 7,21, 0,17, 0.00,60.00,SummerDesignDay
9,18968253601.171304
1381,12030237402.862074
2,1, 7,21, 0,18, 0.00,60.00,SummerDesignDay
9,18977629937.03166
1381,12126491667.39072
2,1, 7,21, 0,19, 0.00,60.00,SummerDesignDay
9,19003337517.96889
1381,12792918718.136963
2,1, 7,21, 0,20, 0.00,60.00,SummerDesignDay
9,18947029515.352159
1381,12826828033.435379
2,1, 7,21, 0,21, 0.00,60.00,SummerDesignDay
9,19267686931.265447
1381,12757464392.453995
2,1, 7,21, 0,22, 0.00,60.00,SummerDesignDay
9,19215518926.313379
1381,12793812384.333878
2,1, 7,21, 0,23, 0.00,60.00,SummerDesignDay
9,18347803279.284585
1381,12424571317.275202
2,1, 7,21, 0,24, 0.00,60.00,SummerDesignDay
9,17897085844.2904
1381,11739042739.810984
1,BUFFALO NIAGARA INTL AP ANN CLG .4% CONDNS WB=>MDB 1 HVAC Sizing Pass 1,  42.93, -78.73,  -5.00, 215.00
2,1, 7,21, 0, 1, 0.00,60.00,SummerDesignDay
9,16317531008.898777
1381,11483000019.200272
2,1, 7,21, 0, 2, 0.00,60.00,SummerDesignDay
9,15020584791.086497
1381,6642653744.682075
2,1, 7,21, 0, 3, 0.00,60.00,SummerDesignDay
9,15005181093.3618
1381,6457276570.74201
2,1, 7,21, 0, 4, 0.00,60.00,SummerDesignDay
9,15060149931.890124
1381,6457276570.74201
2,1, 7,21, 0, 5, 0.00,60.00,SummerDesignDay
9,15122453960.625102
1381,6457276570.74201
2,1, 7,21, 0, 6, 0.00,60.00,SummerDesignDay
9,15648049739.347868
1381,6457276570.74201
2,1, 7,21, 0, 7, 0.00,60.00,SummerDesignDay
9,18069106378.548456
1381,10415471470.885617
2,1, 7,21, 0, 8, 0.00,60.00,SummerDesignDay
9,20141295284.827306
1381,13050975776.656474
2,1, 7,21, 0, 9, 0.00,60.00,SummerDesignDay
9,20367245054.52969
1381,12719192108.013344
2,1, 7,21, 0,10, 0.00,60.00,SummerDesignDay
9,20450976178.811059
1381,12481369122.712559
2,1, 7,21, 0,11, 0.00,60.00,SummerDesignDay
9,20584418695.014944
1381,12096780617.309529
2,1, 7,21, 0,12, 0.00,60.00,SummerDesignDay
9,20781925506.044649
1381,12423754066.678517
2,1, 7,21, 0,13, 0.00,60.00,SummerDesignDay
9,20238709406.793359
1381,12376788637.702988
2,1, 7,21, 0,14, 0.00,60.00,SummerDesignDay
9,20234557343.089754
1381,12051669818.298151
2,1, 7,21, 0,15, 0.00,60.00,SummerDesignDay
9,20133219674.835664
1381,12031163769.041424
2,1, 7,21, 0,16, 0.00,60.00,SummerDesignDay
9,20559522490.881319
1381,12030700383.864418
2,1, 7,21, 0,17, 0.00,60.00,SummerDesignDay
9,20350072109.049089
1381,12030237402.846547
2,1, 7,21, 0,18, 0.00,60.00,SummerDesignDay
9,20246625193.961088
1381,12126491666.586419
2,1, 7,21, 0,19, 0.00,60.00,SummerDesignDay
9,20106168441.36606
1381,12792918718.135672
2,1, 7,21, 0,20, 0.00,60.00,SummerDesignDay
9,19920903179.54887
1381,12826828033.434166
2,1, 7,21, 0,21, 0.00,60.00,SummerDesignDay
9,20147186476.936384
1381,12757464392.45261
2,1, 7,21, 0,22, 0.00,60.00,SummerDesignDay
9,19741149548.84901
1381,12793812384.33269
2,1, 7,21, 0,23, 0.00,60.00,SummerDesignDay
9,18670247731.181035
1381,12424571317.27527
2,1, 7,21, 0,24, 0.00,60.00,SummerDesignDay
9,18063313529.51095
1381,11739042740.523922
1,BUFFALO NIAGARA INTL AP ANN HTG 99.6% CONDNS DB 1 HVAC Sizing Pass 1,  42.93, -78.73,  -5.00, 215.00
2,1, 1,21, 0, 1, 0.00,60.00,WinterDesignDay
9,3489050561.583159
1381,22598265379.859014
2,1, 1,21, 0, 2, 0.00,60.00,WinterDesignDay
9,3103488026.1165325
1381,16412027921.139189
2,1, 1,21, 0, 3, 0.00,60.00,WinterDesignDay
9,3103776044.1880028
1381,16316995136.676342
2,1, 1,21, 0, 4, 0.00,60.00,WinterDesignDay
9,3103677405.9160726
1381,16345926174.446366
2,1, 1,21, 0, 5, 0.00,60.00,WinterDesignDay
9,3103758294.335372
1381,16371164569.166773
2,1, 1,21, 0, 6, 0.00,60.00,WinterDesignDay
9,3133571279.910872
1381,17026867420.619614
2,1, 1,21, 0, 7, 0.00,60.00,WinterDesignDay
9,3421840881.841184
1381,23790600490.40293
2,1, 1,21, 0, 8, 0.00,60.00,WinterDesignDay
9,3431375804.3084285
1381,23962314998.921609
2,1, 1,21, 0, 9, 0.00,60.00,WinterDesignDay
9,2762242598.0621726
1381,23890914607.083215
2,1, 1,21, 0,10, 0.00,60.00,WinterDesignDay
9,3746587902.7060258
1381,25239847986.53556
2,1, 1,21, 0,11, 0.00,60.00,WinterDesignDay
9,3626983686.5538446
1381,25021288763.116064
2,1, 1,21, 0,12, 0.00,60.00,WinterDesignDay
9,3723374852.284344
1381,25224417633.96608
2,1, 1,21, 0,13, 0.00,60.00,WinterDesignDay
9,3709056491.981279
1381,25203497356.015024
2,1, 1,21, 0,14, 0.00,60.00,WinterDesignDay
9,3621597757.600961
1381,24942872492.961584
2,1, 1,21, 0,15, 0.00,60.00,WinterDesignDay
9,3522426866.302468
1381,24673391191.250764
2,1, 1,21, 0,16, 0.00,60.00,WinterDesignDay
9,3517916668.652466
1381,24662636487.07134
2,1, 1,21, 0,17, 0.00,60.00,WinterDesignDay
9,3424032860.7567446
1381,24633251085.98334
2,1, 1,21, 0,18, 0.00,60.00,WinterDesignDay
9,4183038319.215672
1381,24640975357.07174
2,1, 1,21, 0,19, 0.00,60.00,WinterDesignDay
9,4483677856.026528
1381,25114870324.66871
2,1, 1,21, 0,20, 0.00,60.00,WinterDesignDay
9,4510048653.320878
1381,25103177786.6336
2,1, 1,21, 0,21, 0.00,60.00,WinterDesignDay
9,4387848965.03903
1381,25099907324.631826
2,1, 1,21, 0,22, 0.00,60.00,WinterDesignDay
9,4493875361.577087
1381,25089842534.487237
2,1, 1,21, 0,23, 0.00,60.00,WinterDesignDay
9,4112943833.000456
1381,23238195252.586587
2,1, 1,21, 0,24, 0.00,60.00,WinterDesignDay
9,3922174704.5132987
1381,23028678421.90307
1,BUFFALO NIAGARA INTL AP ANN CLG .4% CONDNS DB=>MWB 1,  42.93, -78.73,  -5.00, 215.00
2,1, 7,21, 0, 1, 0.00,60.00,SummerDesignDay
9,16330254268.688921
1381,11483000019.200272
2,1, 7,21, 0, 2, 0.00,60.00,SummerDesignDay
9,15083275944.48171
1381,6642653744.682075
2,1, 7,21, 0, 3, 0.00,60.00,SummerDesignDay
9,15097170817.3388
1381,6457276570.74201
2,1, 7,21, 0, 4, 0.00,60.00,SummerDesignDay
9,15207347762.042397
1381,6457276570.74201
2,1, 7,21, 0, 5, 0.00,60.00,SummerDesignDay
9,15303723916.594099
1381,6457276570.74201
2,1, 7,21, 0, 6, 0.00,60.00,SummerDesignDay
9,15866895777.451498
1381,6457276570.74201
2,1, 7,21, 0, 7, 0.00,60.00,SummerDesignDay
9,18151839880.888525
1381,10415471456.233307
2,1, 7,21, 0, 8, 0.00,60.00,SummerDesignDay
9,19763219817.89454
1381,13050975788.175122
2,1, 7,21, 0, 9, 0.00,60.00,SummerDesignDay
9,19414669998.55244
1381,12719192096.966383
2,1, 7,21, 0,10, 0.00,60.00,SummerDesignDay
9,19359040027.546476
1381,12481369122.955431
2,1, 7,21, 0,11, 0.00,60.00,SummerDesignDay
9,19304848032.10595
1381,12096780628.836483
2,1, 7,21, 0,12, 0.00,60.00,SummerDesignDay
9,19413915255.154916
1381,12423754066.702275
2,1, 7,21, 0,13, 0.00,60.00,SummerDesignDay
9,19355869979.512536
1381,12376788637.727807
2,1, 7,21, 0,14, 0.00,60.00,SummerDesignDay
9,19307844600.5646
1381,12051669807.411282
2,1, 7,21, 0,15, 0.00,60.00,SummerDesignDay
9,19196499895.013254
1381,12031163769.235489
2,1, 7,21, 0,16, 0.00,60.00,SummerDesignDay
9,19108830921.358983
1381,12030700384.056059
2,1, 7,21, 0,17, 0.00,60.00,SummerDesignDay
9,18992338960.53602
1381,12030237403.035706
2,1, 7,21, 0,18, 0.00,60.00,SummerDesignDay
9,19003681005.1164
1381,12126491676.383893
2,1, 7,21, 0,19, 0.00,60.00,SummerDesignDay
9,19032979850.632326
1381,12792918718.151608
2,1, 7,21, 0,20, 0.00,60.00,SummerDesignDay
9,18980641331.191698
1381,12826828033.449158
2,1, 7,21, 0,21, 0.00,60.00,SummerDesignDay
9,19303438219.855363
1381,12757464392.469687
2,1, 7,21, 0,22, 0.00,60.00,SummerDesignDay
9,19252800225.994955
1381,12793812384.34738
2,1, 7,21, 0,23, 0.00,60.00,SummerDesignDay
9,18394389113.17805
1381,12424571317.276295
2,1, 7,21, 0,24, 0.00,60.00,SummerDesignDay
9,17944250632.01847
1381,11739042742.672307
1,BUFFALO NIAGARA INTL AP ANN CLG .4% CONDNS WB=>MDB 1,  42.93, -78.73,  -5.00, 215.00
2,1, 7,21, 0, 1, 0.00,60.00,SummerDesignDay
9,16374447471.653685
1381,11483000019.200272
2,1, 7,21, 0, 2, 0.00,60.00,SummerDesignDay
9,15081428518.079087
1381,6642653744.682075
2,1, 7,21, 0, 3, 0.00,60.00,SummerDesignDay
9,15066208784.47991
1381,6457276570.74201
2,1, 7,21, 0, 4, 0.00,60.00,SummerDesignDay
9,15121011853.679049
1381,6457276570.74201
2,1, 7,21, 0, 5, 0.00,60.00,SummerDesignDay
9,15183037102.113816
1381,6457276570.74201
2,1, 7,21, 0, 6, 0.00,60.00,SummerDesignDay
9,15701778601.071896
1381,6457276570.74201
2,1, 7,21, 0, 7, 0.00,60.00,SummerDesignDay
9,18096000878.804735
1381,11408048706.521288
2,1, 7,21, 0, 8, 0.00,60.00,SummerDesignDay
9,20141258384.60188
1381,12827009631.43996
2,1, 7,21, 0, 9, 0.00,60.00,SummerDesignDay
9,20380828888.291257
1381,12792976614.1333
2,1, 7,21, 0,10, 0.00,60.00,SummerDesignDay
9,20450105843.979326
1381,12424285362.116177
2,1, 7,21, 0,11, 0.00,60.00,SummerDesignDay
9,20581567511.02791
1381,12377340691.179379
2,1, 7,21, 0,12, 0.00,60.00,SummerDesignDay
9,20778164878.32666
1381,12424915660.292243
2,1, 7,21, 0,13, 0.00,60.00,SummerDesignDay
9,20255891158.951585
1381,12288982424.06007
2,1, 7,21, 0,14, 0.00,60.00,SummerDesignDay
9,20252089837.580347
1381,12107466170.838917
2,1, 7,21, 0,15, 0.00,60.00,SummerDesignDay
9,20150145778.38586
1381,11955089731.624438
2,1, 7,21, 0,16, 0.00,60.00,SummerDesignDay
9,20551631472.450536
1381,11954875812.030339
2,1, 7,21, 0,17, 0.00,60.00,SummerDesignDay
9,20351490102.93089
1381,11954658326.985882
2,1, 7,21, 0,18, 0.00,60.00,SummerDesignDay
9,20250800974.45067
1381,12377320454.63633
2,1, 7,21, 0,19, 0.00,60.00,SummerDesignDay
9,20119721642.92925
1381,12793776237.478837
2,1, 7,21, 0,20, 0.00,60.00,SummerDesignDay
9,19946635714.820169
1381,12827630314.939122
2,1, 7,21, 0,21, 0.00,60.00,SummerDesignDay
9,20172695139.03022
1381,12469202035.70715
2,1, 7,21, 0,22, 0.00,60.00,SummerDesignDay
9,19776257405.900995
1381,12792849325.805909
2,1, 7,21, 0,23, 0.00,60.00,SummerDesignDay
9,18717647152.716165
1381,12424550297.29791
2,1, 7,21, 0,24, 0.00,60.00,SummerDesignDay
9,18106144721.95756
1381,11890420820.97717
1,BUFFALO NIAGARA INTL AP ANN HTG 99.6% CONDNS DB 1,  42.93, -78.73,  -5.00, 215.00
2,1, 1,21, 0, 1, 0.00,60.00,WinterDesignDay
9,3489046876.119741
1381,22598265379.859014
2,1, 1,21, 0, 2, 0.00,60.00,WinterDesignDay
9,3103488022.3414447
1381,16412027921.139189
2,1, 1,21, 0, 3, 0.00,60.00,WinterDesignDay
9,3103776036.7019298
1381,16316995136.676342
2,1, 1,21, 0, 4, 0.00,60.00,WinterDesignDay
9,3103677402.0744349
1381,16345926174.446366
2,1, 1,21, 0, 5, 0.00,60.00,WinterDesignDay
9,3103758290.5265586
1381,16371164569.166773
2,1, 1,21, 0, 6, 0.00,60.00,WinterDesignDay
9,3133571276.1883127
1381,17026867420.619614
2,1, 1,21, 0, 7, 0.00,60.00,WinterDesignDay
9,3421840878.123903
1381,23790600490.40293
2,1, 1,21, 0, 8, 0.00,60.00,WinterDesignDay
9,3431375796.875184
1381,23962314998.921609
2,1, 1,21, 0, 9, 0.00,60.00,WinterDesignDay
9,2762242594.333134
1381,23890914607.083215
2,1, 1,21, 0,10, 0.00,60.00,WinterDesignDay
9,3746330839.034946
1381,25239847986.53556
2,1, 1,21, 0,11, 0.00,60.00,WinterDesignDay
9,3627225370.9554817
1381,25021288763.116064
2,1, 1,21, 0,12, 0.00,60.00,WinterDesignDay
9,3723387570.9331486
1381,25224417633.96608
2,1, 1,21, 0,13, 0.00,60.00,WinterDesignDay
9,3709263801.0394265
1381,25203497356.015024
2,1, 1,21, 0,14, 0.00,60.00,WinterDesignDay
9,3621407532.807266
1381,24942872492.961584
2,1, 1,21, 0,15, 0.00,60.00,WinterDesignDay
9,3522343464.8976185
1381,24673391191.2506
2,1, 1,21, 0,16, 0.00,60.00,WinterDesignDay
9,3517939889.4027216
1381,24662636487.032289
2,1, 1,21, 0,17, 0.00,60.00,WinterDesignDay
9,3424001367.0265815
1381,24633251085.93816
2,1, 1,21, 0,18, 0.00,60.00,WinterDesignDay
9,4182988765.295168
1381,24640975357.03767
2,1, 1,21, 0,19, 0.00,60.00,WinterDesignDay
9,4483646260.307533
1381,25114870324.66871
2,1, 1,21, 0,20, 0.00,60.00,WinterDesignDay
9,4509457147.973222
1381,25103177786.6336
2,1, 1,21, 0,21, 0.00,60.00,WinterDesignDay
9,4388280029.901999
1381,25099907324.631826
2,1, 1,21, 0,22, 0.00,60.00,WinterDesignDay
9,4493909102.418302
1381,25089842534.487237
2,1, 1,21, 0,23, 0.00,60.00,WinterDesignDay
9,4113303652.5890257
1381,23238195254.364938
2,1, 1,21, 0,24, 0.00,60.00,WinterDesignDay
9,3921864274.044347
1381,23028678420.026124
End of Data
 Number of Records Written=         288
