Program Version,EnergyPlus, Version 9.5.0-de239b2e5f, YMD=2021.08.10 22:33
1,5,Environment Title[],Latitude[deg],Longitude[deg],Time Zone[],Elevation[m]
2,8,Day of Simulation[],Month[],Day of Month[],DST Indicator[1=yes 0=no],Hour[],StartMinute[],EndMinute[],DayType
3,5,Cumulative Day of Simulation[],Month[],Day of Month[],DST Indicator[1=yes 0=no],DayType  ! When Daily Report Variables Requested
4,2,Cumulative Days of Simulation[],Month[]  ! When Monthly Report Variables Requested
5,1,Cumulative Days of Simulation[] ! When Run Period Report Variables Requested
6,1,Calendar Year of Simulation[] ! When Annual Report Variables Requested
9,1,Electricity:Facility [J] !TimeStep
1381,1,NaturalGas:Facility [J] !TimeStep
End of Data Dictionary
1,BUFFALO NIAGARA INTL AP ANN CLG .4% CONDNS DB=>MWB 1 HVAC Sizing Pass 1,  42.93, -78.73,  -5.00, 215.00
2,1, 7,21, 0, 1, 0.00,60.00,SummerDesignDay
9,16273252520.217509
1381,11483000019.200272
2,1, 7,21, 0, 2, 0.00,60.00,SummerDesignDay
9,15022627941.219643
1381,6642653744.682075
2,1, 7,21, 0, 3, 0.00,60.00,SummerDesignDay
9,15036416919.572335
1381,6457276570.74201
2,1, 7,21, 0, 4, 0.00,60.00,SummerDesignDay
9,15147143381.548819
1381,6457276570.74201
2,1, 7,21, 0, 5, 0.00,60.00,SummerDesignDay
9,15244042992.82596
1381,6457276570.74201
2,1, 7,21, 0, 6, 0.00,60.00,SummerDesignDay
9,15811198628.081215
1381,6457276570.74201
2,1, 7,21, 0, 7, 0.00,60.00,SummerDesignDay
9,18129313492.677057
1381,10415471470.885617
2,1, 7,21, 0, 8, 0.00,60.00,SummerDesignDay
9,19755607265.621908
1381,13050975776.656273
2,1, 7,21, 0, 9, 0.00,60.00,SummerDesignDay
9,19396676898.929979
1381,12719192107.109074
2,1, 7,21, 0,10, 0.00,60.00,SummerDesignDay
9,19340797551.00852
1381,12481369122.716004
2,1, 7,21, 0,11, 0.00,60.00,SummerDesignDay
9,19285106301.14061
1381,12096780618.26883
2,1, 7,21, 0,12, 0.00,60.00,SummerDesignDay
9,19392536842.643438
1381,12423754066.680466
2,1, 7,21, 0,13, 0.00,60.00,SummerDesignDay
9,19333516620.56222
1381,12376788637.705029
2,1, 7,21, 0,14, 0.00,60.00,SummerDesignDay
9,19286007040.43658
1381,12051669817.404423
2,1, 7,21, 0,15, 0.00,60.00,SummerDesignDay
9,19174668875.46433
1381,12031163769.05735
2,1, 7,21, 0,16, 0.00,60.00,SummerDesignDay
9,19086266976.588476
1381,12030700383.88015
2,1, 7,21, 0,17, 0.00,60.00,SummerDesignDay
9,18968254384.05351
1381,12030237402.862074
2,1, 7,21, 0,18, 0.00,60.00,SummerDesignDay
9,18977629941.013238
1381,12126491667.39072
2,1, 7,21, 0,19, 0.00,60.00,SummerDesignDay
9,19003337527.618566
1381,12792918718.136963
2,1, 7,21, 0,20, 0.00,60.00,SummerDesignDay
9,18947031492.86516
1381,12826828033.435379
2,1, 7,21, 0,21, 0.00,60.00,SummerDesignDay
9,19267688305.53419
1381,12757464392.453995
2,1, 7,21, 0,22, 0.00,60.00,SummerDesignDay
9,19215519359.71366
1381,12793812384.333878
2,1, 7,21, 0,23, 0.00,60.00,SummerDesignDay
9,18347803812.636205
1381,12424571317.275202
2,1, 7,21, 0,24, 0.00,60.00,SummerDesignDay
9,17897086027.213468
1381,11739042739.810984
1,BUFFALO NIAGARA INTL AP ANN CLG .4% CONDNS WB=>MDB 1 HVAC Sizing Pass 1,  42.93, -78.73,  -5.00, 215.00
2,1, 7,21, 0, 1, 0.00,60.00,SummerDesignDay
9,16317531067.555365
1381,11483000019.200272
2,1, 7,21, 0, 2, 0.00,60.00,SummerDesignDay
9,15020584830.7022
1381,6642653744.682075
2,1, 7,21, 0, 3, 0.00,60.00,SummerDesignDay
9,15005181136.867337
1381,6457276570.74201
2,1, 7,21, 0, 4, 0.00,60.00,SummerDesignDay
9,15060149974.826903
1381,6457276570.74201
2,1, 7,21, 0, 5, 0.00,60.00,SummerDesignDay
9,15122454013.714272
1381,6457276570.74201
2,1, 7,21, 0, 6, 0.00,60.00,SummerDesignDay
9,15648049850.381007
1381,6457276570.74201
2,1, 7,21, 0, 7, 0.00,60.00,SummerDesignDay
9,18073162625.98707
1381,10415471470.885617
2,1, 7,21, 0, 8, 0.00,60.00,SummerDesignDay
9,20141284753.63512
1381,13050975776.656474
2,1, 7,21, 0, 9, 0.00,60.00,SummerDesignDay
9,20370280650.35922
1381,12719192108.013344
2,1, 7,21, 0,10, 0.00,60.00,SummerDesignDay
9,20448033639.16965
1381,12481369122.712559
2,1, 7,21, 0,11, 0.00,60.00,SummerDesignDay
9,20586336127.231119
1381,12096780617.309529
2,1, 7,21, 0,12, 0.00,60.00,SummerDesignDay
9,20782809140.92641
1381,12423754066.678517
2,1, 7,21, 0,13, 0.00,60.00,SummerDesignDay
9,20238712484.171655
1381,12376788637.702988
2,1, 7,21, 0,14, 0.00,60.00,SummerDesignDay
9,20233505246.336549
1381,12051669818.298151
2,1, 7,21, 0,15, 0.00,60.00,SummerDesignDay
9,20133243836.227518
1381,12031163769.041424
2,1, 7,21, 0,16, 0.00,60.00,SummerDesignDay
9,20558123783.144556
1381,12030700383.864418
2,1, 7,21, 0,17, 0.00,60.00,SummerDesignDay
9,20352468599.674306
1381,12030237402.846547
2,1, 7,21, 0,18, 0.00,60.00,SummerDesignDay
9,20245187158.162714
1381,12126491666.586419
2,1, 7,21, 0,19, 0.00,60.00,SummerDesignDay
9,20105484522.421659
1381,12792918718.135672
2,1, 7,21, 0,20, 0.00,60.00,SummerDesignDay
9,19922384159.635305
1381,12826828033.434166
2,1, 7,21, 0,21, 0.00,60.00,SummerDesignDay
9,20145534249.39454
1381,12757464392.45261
2,1, 7,21, 0,22, 0.00,60.00,SummerDesignDay
9,19741147243.868879
1381,12793812384.33269
2,1, 7,21, 0,23, 0.00,60.00,SummerDesignDay
9,18673246348.666284
1381,12424571317.27527
2,1, 7,21, 0,24, 0.00,60.00,SummerDesignDay
9,18060301010.89664
1381,11739042740.523922
1,BUFFALO NIAGARA INTL AP ANN HTG 99.6% CONDNS DB 1 HVAC Sizing Pass 1,  42.93, -78.73,  -5.00, 215.00
2,1, 1,21, 0, 1, 0.00,60.00,WinterDesignDay
9,3489050566.6231367
1381,22598265714.54559
2,1, 1,21, 0, 2, 0.00,60.00,WinterDesignDay
9,3103488031.1565096
1381,16412028255.82714
2,1, 1,21, 0, 3, 0.00,60.00,WinterDesignDay
9,3103776049.2279798
1381,16316995471.363078
2,1, 1,21, 0, 4, 0.00,60.00,WinterDesignDay
9,3103677410.9560496
1381,16345926509.132102
2,1, 1,21, 0, 5, 0.00,60.00,WinterDesignDay
9,3103758299.375349
1381,16371164903.851899
2,1, 1,21, 0, 6, 0.00,60.00,WinterDesignDay
9,3133571284.9508488
1381,17026867755.293225
2,1, 1,21, 0, 7, 0.00,60.00,WinterDesignDay
9,3421840886.9084966
1381,23790600825.05169
2,1, 1,21, 0, 8, 0.00,60.00,WinterDesignDay
9,3431375809.3241145
1381,23962315333.54097
2,1, 1,21, 0, 9, 0.00,60.00,WinterDesignDay
9,2762242603.1020185
1381,23890914941.78843
2,1, 1,21, 0,10, 0.00,60.00,WinterDesignDay
9,3746587907.7462885
1381,25239848321.1426
2,1, 1,21, 0,11, 0.00,60.00,WinterDesignDay
9,3626983691.613087
1381,25021289097.829385
2,1, 1,21, 0,12, 0.00,60.00,WinterDesignDay
9,3723374857.3030989
1381,25224417968.67191
2,1, 1,21, 0,13, 0.00,60.00,WinterDesignDay
9,3709056497.021487
1381,25203497690.727499
2,1, 1,21, 0,14, 0.00,60.00,WinterDesignDay
9,3621597762.6636006
1381,24942872827.662977
2,1, 1,21, 0,15, 0.00,60.00,WinterDesignDay
9,3522426871.3441946
1381,24673391525.961065
2,1, 1,21, 0,16, 0.00,60.00,WinterDesignDay
9,3517916673.5145156
1381,24662636821.78058
2,1, 1,21, 0,17, 0.00,60.00,WinterDesignDay
9,3424032865.794775
1381,24633251420.683347
2,1, 1,21, 0,18, 0.00,60.00,WinterDesignDay
9,4183038324.2657287
1381,24640975691.78019
2,1, 1,21, 0,19, 0.00,60.00,WinterDesignDay
9,4483677861.062633
1381,25114870659.367364
2,1, 1,21, 0,20, 0.00,60.00,WinterDesignDay
9,4510048658.354047
1381,25103178121.340459
2,1, 1,21, 0,21, 0.00,60.00,WinterDesignDay
9,4387848970.100323
1381,25099907659.338804
2,1, 1,21, 0,22, 0.00,60.00,WinterDesignDay
9,4493875366.823422
1381,25089842869.18526
2,1, 1,21, 0,23, 0.00,60.00,WinterDesignDay
9,4112943837.9744808
1381,23238195587.105356
2,1, 1,21, 0,24, 0.00,60.00,WinterDesignDay
9,3922174709.2820198
1381,23028678756.549467
1,BUFFALO NIAGARA INTL AP ANN CLG .4% CONDNS DB=>MWB 1,  42.93, -78.73,  -5.00, 215.00
2,1, 7,21, 0, 1, 0.00,60.00,SummerDesignDay
9,16330254307.467612
1381,11483000019.200272
2,1, 7,21, 0, 2, 0.00,60.00,SummerDesignDay
9,15083275967.583823
1381,6642653744.682075
2,1, 7,21, 0, 3, 0.00,60.00,SummerDesignDay
9,15097170863.711846
1381,6457276570.74201
2,1, 7,21, 0, 4, 0.00,60.00,SummerDesignDay
9,15207347806.724387
1381,6457276570.74201
2,1, 7,21, 0, 5, 0.00,60.00,SummerDesignDay
9,15303724001.039288
1381,6457276570.74201
2,1, 7,21, 0, 6, 0.00,60.00,SummerDesignDay
9,15866895931.664875
1381,6457276570.74201
2,1, 7,21, 0, 7, 0.00,60.00,SummerDesignDay
9,18151838562.674669
1381,10415471456.233307
2,1, 7,21, 0, 8, 0.00,60.00,SummerDesignDay
9,19763219941.70419
1381,13050975788.175122
2,1, 7,21, 0, 9, 0.00,60.00,SummerDesignDay
9,19414669423.44719
1381,12719192096.966383
2,1, 7,21, 0,10, 0.00,60.00,SummerDesignDay
9,19359040058.312456
1381,12481369122.955431
2,1, 7,21, 0,11, 0.00,60.00,SummerDesignDay
9,19304848716.26732
1381,12096780628.836483
2,1, 7,21, 0,12, 0.00,60.00,SummerDesignDay
9,19413914633.45163
1381,12423754066.702275
2,1, 7,21, 0,13, 0.00,60.00,SummerDesignDay
9,19355870013.998369
1381,12376788637.727807
2,1, 7,21, 0,14, 0.00,60.00,SummerDesignDay
9,19307845241.986585
1381,12051669807.411282
2,1, 7,21, 0,15, 0.00,60.00,SummerDesignDay
9,19196498843.719
1381,12031163769.235489
2,1, 7,21, 0,16, 0.00,60.00,SummerDesignDay
9,19108831773.90096
1381,12030700384.056059
2,1, 7,21, 0,17, 0.00,60.00,SummerDesignDay
9,18992338238.874917
1381,12030237403.035706
2,1, 7,21, 0,18, 0.00,60.00,SummerDesignDay
9,19003681015.036798
1381,12126491676.383893
2,1, 7,21, 0,19, 0.00,60.00,SummerDesignDay
9,19032979874.53208
1381,12792918718.151608
2,1, 7,21, 0,20, 0.00,60.00,SummerDesignDay
9,18980643796.50361
1381,12826828033.449158
2,1, 7,21, 0,21, 0.00,60.00,SummerDesignDay
9,19303439592.438058
1381,12757464392.469687
2,1, 7,21, 0,22, 0.00,60.00,SummerDesignDay
9,19252800646.11
1381,12793812384.34738
2,1, 7,21, 0,23, 0.00,60.00,SummerDesignDay
9,18394389650.658838
1381,12424571317.276295
2,1, 7,21, 0,24, 0.00,60.00,SummerDesignDay
9,17944250847.51408
1381,11739042742.672307
1,BUFFALO NIAGARA INTL AP ANN CLG .4% CONDNS WB=>MDB 1,  42.93, -78.73,  -5.00, 215.00
2,1, 7,21, 0, 1, 0.00,60.00,SummerDesignDay
9,16374447503.882359
1381,11483000019.200272
2,1, 7,21, 0, 2, 0.00,60.00,SummerDesignDay
9,15081428546.793404
1381,6642653744.682075
2,1, 7,21, 0, 3, 0.00,60.00,SummerDesignDay
9,15066208818.04694
1381,6457276570.74201
2,1, 7,21, 0, 4, 0.00,60.00,SummerDesignDay
9,15121011812.17122
1381,6457276570.74201
2,1, 7,21, 0, 5, 0.00,60.00,SummerDesignDay
9,15183037134.656958
1381,6457276570.74201
2,1, 7,21, 0, 6, 0.00,60.00,SummerDesignDay
9,15701778712.300135
1381,6457276570.74201
2,1, 7,21, 0, 7, 0.00,60.00,SummerDesignDay
9,18091944961.51357
1381,11408048706.52129
2,1, 7,21, 0, 8, 0.00,60.00,SummerDesignDay
9,20141269243.492506
1381,12827009631.428324
2,1, 7,21, 0, 9, 0.00,60.00,SummerDesignDay
9,20377793632.51714
1381,12792976614.183203
2,1, 7,21, 0,10, 0.00,60.00,SummerDesignDay
9,20453048536.981725
1381,12424285362.176859
2,1, 7,21, 0,11, 0.00,60.00,SummerDesignDay
9,20579650125.041387
1381,12377340691.242428
2,1, 7,21, 0,12, 0.00,60.00,SummerDesignDay
9,20777281074.7544
1381,12424915660.350609
2,1, 7,21, 0,13, 0.00,60.00,SummerDesignDay
9,20255888257.75059
1381,12288982393.004014
2,1, 7,21, 0,14, 0.00,60.00,SummerDesignDay
9,20253141322.89089
1381,12107466202.579358
2,1, 7,21, 0,15, 0.00,60.00,SummerDesignDay
9,20150120867.92007
1381,11955089731.707592
2,1, 7,21, 0,16, 0.00,60.00,SummerDesignDay
9,20553030125.2932
1381,11954875812.114872
2,1, 7,21, 0,17, 0.00,60.00,SummerDesignDay
9,20349093757.85618
1381,11954658327.07183
2,1, 7,21, 0,18, 0.00,60.00,SummerDesignDay
9,20252239233.652578
1381,12377320454.706273
2,1, 7,21, 0,19, 0.00,60.00,SummerDesignDay
9,20120404415.473188
1381,12793776237.416384
2,1, 7,21, 0,20, 0.00,60.00,SummerDesignDay
9,19945159013.812467
1381,12827630314.880703
2,1, 7,21, 0,21, 0.00,60.00,SummerDesignDay
9,20174351040.92017
1381,12469202035.627762
2,1, 7,21, 0,22, 0.00,60.00,SummerDesignDay
9,19776258584.69651
1381,12792849325.734242
2,1, 7,21, 0,23, 0.00,60.00,SummerDesignDay
9,18714649203.16645
1381,12424550297.33155
2,1, 7,21, 0,24, 0.00,60.00,SummerDesignDay
9,18109157521.84048
1381,11890420820.94473
1,BUFFALO NIAGARA INTL AP ANN HTG 99.6% CONDNS DB 1,  42.93, -78.73,  -5.00, 215.00
2,1, 1,21, 0, 1, 0.00,60.00,WinterDesignDay
9,3489046881.1597187
1381,22598265714.54559
2,1, 1,21, 0, 2, 0.00,60.00,WinterDesignDay
9,3103488027.3814218
1381,16412028255.82714
2,1, 1,21, 0, 3, 0.00,60.00,WinterDesignDay
9,3103776041.7419068
1381,16316995471.363078
2,1, 1,21, 0, 4, 0.00,60.00,WinterDesignDay
9,3103677407.114412
1381,16345926509.132102
2,1, 1,21, 0, 5, 0.00,60.00,WinterDesignDay
9,3103758295.5665357
1381,16371164903.851899
2,1, 1,21, 0, 6, 0.00,60.00,WinterDesignDay
9,3133571281.228289
1381,17026867755.293225
2,1, 1,21, 0, 7, 0.00,60.00,WinterDesignDay
9,3421840883.1908786
1381,23790600825.05169
2,1, 1,21, 0, 8, 0.00,60.00,WinterDesignDay
9,3431375801.8911788
1381,23962315333.54097
2,1, 1,21, 0, 9, 0.00,60.00,WinterDesignDay
9,2762242599.3731105
1381,23890914941.78843
2,1, 1,21, 0,10, 0.00,60.00,WinterDesignDay
9,3746330844.0752665
1381,25239848321.1426
2,1, 1,21, 0,11, 0.00,60.00,WinterDesignDay
9,3627225376.014844
1381,25021289097.829385
2,1, 1,21, 0,12, 0.00,60.00,WinterDesignDay
9,3723387575.951952
1381,25224417968.67191
2,1, 1,21, 0,13, 0.00,60.00,WinterDesignDay
9,3709263806.0798385
1381,25203497690.727499
2,1, 1,21, 0,14, 0.00,60.00,WinterDesignDay
9,3621407537.8702895
1381,24942872827.662977
2,1, 1,21, 0,15, 0.00,60.00,WinterDesignDay
9,3522343469.939935
1381,24673391525.9609
2,1, 1,21, 0,16, 0.00,60.00,WinterDesignDay
9,3517939894.266027
1381,24662636821.74153
2,1, 1,21, 0,17, 0.00,60.00,WinterDesignDay
9,3424001372.06907
1381,24633251420.638166
2,1, 1,21, 0,18, 0.00,60.00,WinterDesignDay
9,4182988770.342441
1381,24640975691.74612
2,1, 1,21, 0,19, 0.00,60.00,WinterDesignDay
9,4483646265.351645
1381,25114870659.367364
2,1, 1,21, 0,20, 0.00,60.00,WinterDesignDay
9,4509457153.0143179
1381,25103178121.340459
2,1, 1,21, 0,21, 0.00,60.00,WinterDesignDay
9,4388280034.94153
1381,25099907659.338804
2,1, 1,21, 0,22, 0.00,60.00,WinterDesignDay
9,4493909107.6577219
1381,25089842869.18526
2,1, 1,21, 0,23, 0.00,60.00,WinterDesignDay
9,4113303656.891603
1381,23238195588.883707
2,1, 1,21, 0,24, 0.00,60.00,WinterDesignDay
9,3921864278.556312
1381,23028678754.67252
End of Data
 Number of Records Written=         288
