Program Version,EnergyPlus, Version 9.5.0-de239b2e5f, YMD=2021.08.10 17:53
1,5,Environment Title[],Latitude[deg],Longitude[deg],Time Zone[],Elevation[m]
2,8,Day of Simulation[],Month[],Day of Month[],DST Indicator[1=yes 0=no],Hour[],StartMinute[],EndMinute[],DayType
3,5,Cumulative Day of Simulation[],Month[],Day of Month[],DST Indicator[1=yes 0=no],DayType  ! When Daily Report Variables Requested
4,2,Cumulative Days of Simulation[],Month[]  ! When Monthly Report Variables Requested
5,1,Cumulative Days of Simulation[] ! When Run Period Report Variables Requested
6,1,Calendar Year of Simulation[] ! When Annual Report Variables Requested
9,1,Electricity:Facility [J] !TimeStep
1381,1,NaturalGas:Facility [J] !TimeStep
End of Data Dictionary
1,BUFFALO NIAGARA INTL AP ANN CLG .4% CONDNS DB=>MWB 1 HVAC Sizing Pass 1,  42.93, -78.73,  -5.00, 215.00
2,1, 7,21, 0, 1, 0.00,60.00,SummerDesignDay
9,16273252508.73344
1381,11483000019.200272
2,1, 7,21, 0, 2, 0.00,60.00,SummerDesignDay
9,15022627940.45818
1381,6642653744.682075
2,1, 7,21, 0, 3, 0.00,60.00,SummerDesignDay
9,15036416906.890883
1381,6457276570.74201
2,1, 7,21, 0, 4, 0.00,60.00,SummerDesignDay
9,15147143379.001135
1381,6457276570.74201
2,1, 7,21, 0, 5, 0.00,60.00,SummerDesignDay
9,15244042928.275485
1381,6457276570.74201
2,1, 7,21, 0, 6, 0.00,60.00,SummerDesignDay
9,15811198619.292136
1381,6457276570.74201
2,1, 7,21, 0, 7, 0.00,60.00,SummerDesignDay
9,18129313589.759199
1381,10415471470.885617
2,1, 7,21, 0, 8, 0.00,60.00,SummerDesignDay
9,19755607345.949117
1381,13050975776.656273
2,1, 7,21, 0, 9, 0.00,60.00,SummerDesignDay
9,19396676913.50525
1381,12719192107.109074
2,1, 7,21, 0,10, 0.00,60.00,SummerDesignDay
9,19340797754.11938
1381,12481369122.716004
2,1, 7,21, 0,11, 0.00,60.00,SummerDesignDay
9,19285106266.469026
1381,12096780618.26883
2,1, 7,21, 0,12, 0.00,60.00,SummerDesignDay
9,19392536968.708997
1381,12423754066.680466
2,1, 7,21, 0,13, 0.00,60.00,SummerDesignDay
9,19333516675.16065
1381,12376788637.705029
2,1, 7,21, 0,14, 0.00,60.00,SummerDesignDay
9,19286007314.44514
1381,12051669817.404423
2,1, 7,21, 0,15, 0.00,60.00,SummerDesignDay
9,19174668780.75879
1381,12031163769.05735
2,1, 7,21, 0,16, 0.00,60.00,SummerDesignDay
9,19086266978.1986
1381,12030700383.88015
2,1, 7,21, 0,17, 0.00,60.00,SummerDesignDay
9,18968254296.34885
1381,12030237402.862074
2,1, 7,21, 0,18, 0.00,60.00,SummerDesignDay
9,18977630722.38612
1381,12126491667.39072
2,1, 7,21, 0,19, 0.00,60.00,SummerDesignDay
9,19003337535.83035
1381,12792918718.136963
2,1, 7,21, 0,20, 0.00,60.00,SummerDesignDay
9,18947031547.780275
1381,12826828033.435379
2,1, 7,21, 0,21, 0.00,60.00,SummerDesignDay
9,19267688339.450887
1381,12757464392.453995
2,1, 7,21, 0,22, 0.00,60.00,SummerDesignDay
9,19215519528.403726
1381,12793812384.333878
2,1, 7,21, 0,23, 0.00,60.00,SummerDesignDay
9,18347803650.236356
1381,12424571317.275202
2,1, 7,21, 0,24, 0.00,60.00,SummerDesignDay
9,17897086068.957246
1381,11739042739.810984
1,BUFFALO NIAGARA INTL AP ANN CLG .4% CONDNS WB=>MDB 1 HVAC Sizing Pass 1,  42.93, -78.73,  -5.00, 215.00
2,1, 7,21, 0, 1, 0.00,60.00,SummerDesignDay
9,16317531063.637772
1381,11483000019.200272
2,1, 7,21, 0, 2, 0.00,60.00,SummerDesignDay
9,15020584831.903977
1381,6642653744.682075
2,1, 7,21, 0, 3, 0.00,60.00,SummerDesignDay
9,15005181144.585663
1381,6457276570.74201
2,1, 7,21, 0, 4, 0.00,60.00,SummerDesignDay
9,15060149874.410964
1381,6457276570.74201
2,1, 7,21, 0, 5, 0.00,60.00,SummerDesignDay
9,15122454000.96372
1381,6457276570.74201
2,1, 7,21, 0, 6, 0.00,60.00,SummerDesignDay
9,15648049793.677672
1381,6457276570.74201
2,1, 7,21, 0, 7, 0.00,60.00,SummerDesignDay
9,18073162529.924604
1381,10415471470.885617
2,1, 7,21, 0, 8, 0.00,60.00,SummerDesignDay
9,20141284723.362565
1381,13050975776.656474
2,1, 7,21, 0, 9, 0.00,60.00,SummerDesignDay
9,20370280643.02194
1381,12719192108.013344
2,1, 7,21, 0,10, 0.00,60.00,SummerDesignDay
9,20448033821.69974
1381,12481369122.712559
2,1, 7,21, 0,11, 0.00,60.00,SummerDesignDay
9,20586336107.55516
1381,12096780617.309529
2,1, 7,21, 0,12, 0.00,60.00,SummerDesignDay
9,20782809113.18484
1381,12423754066.678517
2,1, 7,21, 0,13, 0.00,60.00,SummerDesignDay
9,20238712439.33834
1381,12376788637.702988
2,1, 7,21, 0,14, 0.00,60.00,SummerDesignDay
9,20233505217.020246
1381,12051669818.298151
2,1, 7,21, 0,15, 0.00,60.00,SummerDesignDay
9,20133243866.56051
1381,12031163769.041424
2,1, 7,21, 0,16, 0.00,60.00,SummerDesignDay
9,20558123840.45146
1381,12030700383.864418
2,1, 7,21, 0,17, 0.00,60.00,SummerDesignDay
9,20352468668.623559
1381,12030237402.846547
2,1, 7,21, 0,18, 0.00,60.00,SummerDesignDay
9,20245187147.60289
1381,12126491666.586419
2,1, 7,21, 0,19, 0.00,60.00,SummerDesignDay
9,20105485445.068407
1381,12792918718.135672
2,1, 7,21, 0,20, 0.00,60.00,SummerDesignDay
9,19922384313.736948
1381,12826828033.434166
2,1, 7,21, 0,21, 0.00,60.00,SummerDesignDay
9,20145534184.972665
1381,12757464392.45261
2,1, 7,21, 0,22, 0.00,60.00,SummerDesignDay
9,19741148484.129449
1381,12793812384.33269
2,1, 7,21, 0,23, 0.00,60.00,SummerDesignDay
9,18673246322.241617
1381,12424571317.27527
2,1, 7,21, 0,24, 0.00,60.00,SummerDesignDay
9,18060301123.09928
1381,11739042740.523922
1,BUFFALO NIAGARA INTL AP ANN HTG 99.6% CONDNS DB 1 HVAC Sizing Pass 1,  42.93, -78.73,  -5.00, 215.00
2,1, 1,21, 0, 1, 0.00,60.00,WinterDesignDay
9,3489050566.6231768
1381,22598265714.544725
2,1, 1,21, 0, 2, 0.00,60.00,WinterDesignDay
9,3103488031.15655
1381,16412028255.826313
2,1, 1,21, 0, 3, 0.00,60.00,WinterDesignDay
9,3103776049.2280199
1381,16316995471.362307
2,1, 1,21, 0, 4, 0.00,60.00,WinterDesignDay
9,3103677410.9560897
1381,16345926509.131384
2,1, 1,21, 0, 5, 0.00,60.00,WinterDesignDay
9,3103758299.3753898
1381,16371164903.851283
2,1, 1,21, 0, 6, 0.00,60.00,WinterDesignDay
9,3133571284.950889
1381,17026867755.292988
2,1, 1,21, 0, 7, 0.00,60.00,WinterDesignDay
9,3421840886.9084026
1381,23790600825.052225
2,1, 1,21, 0, 8, 0.00,60.00,WinterDesignDay
9,3431375809.3239939
1381,23962315333.541429
2,1, 1,21, 0, 9, 0.00,60.00,WinterDesignDay
9,2762242603.1020205
1381,23890914941.78882
2,1, 1,21, 0,10, 0.00,60.00,WinterDesignDay
9,3746587907.746184
1381,25239848321.142953
2,1, 1,21, 0,11, 0.00,60.00,WinterDesignDay
9,3626983691.613151
1381,25021289097.829713
2,1, 1,21, 0,12, 0.00,60.00,WinterDesignDay
9,3723374857.3028075
1381,25224417968.672239
2,1, 1,21, 0,13, 0.00,60.00,WinterDesignDay
9,3709056497.0211389
1381,25203497690.72781
2,1, 1,21, 0,14, 0.00,60.00,WinterDesignDay
9,3621597762.663007
1381,24942872827.663316
2,1, 1,21, 0,15, 0.00,60.00,WinterDesignDay
9,3522426871.3440425
1381,24673391525.961404
2,1, 1,21, 0,16, 0.00,60.00,WinterDesignDay
9,3517916673.5146448
1381,24662636821.78085
2,1, 1,21, 0,17, 0.00,60.00,WinterDesignDay
9,3424032865.794675
1381,24633251420.683706
2,1, 1,21, 0,18, 0.00,60.00,WinterDesignDay
9,4183038324.2657887
1381,24640975691.780519
2,1, 1,21, 0,19, 0.00,60.00,WinterDesignDay
9,4483677861.062545
1381,25114870659.36763
2,1, 1,21, 0,20, 0.00,60.00,WinterDesignDay
9,4510048658.3539509
1381,25103178121.340749
2,1, 1,21, 0,21, 0.00,60.00,WinterDesignDay
9,4387848970.100225
1381,25099907659.33909
2,1, 1,21, 0,22, 0.00,60.00,WinterDesignDay
9,4493875366.823833
1381,25089842869.18556
2,1, 1,21, 0,23, 0.00,60.00,WinterDesignDay
9,4112943837.9740507
1381,23238195587.10422
2,1, 1,21, 0,24, 0.00,60.00,WinterDesignDay
9,3922174709.2820255
1381,23028678756.5485
1,BUFFALO NIAGARA INTL AP ANN CLG .4% CONDNS DB=>MWB 1,  42.93, -78.73,  -5.00, 215.00
2,1, 7,21, 0, 1, 0.00,60.00,SummerDesignDay
9,16330518757.750622
1381,11483000019.200272
2,1, 7,21, 0, 2, 0.00,60.00,SummerDesignDay
9,15083388970.225108
1381,6642653744.682075
2,1, 7,21, 0, 3, 0.00,60.00,SummerDesignDay
9,15097170841.643525
1381,6457276570.74201
2,1, 7,21, 0, 4, 0.00,60.00,SummerDesignDay
9,15207347908.844063
1381,6457276570.74201
2,1, 7,21, 0, 5, 0.00,60.00,SummerDesignDay
9,15303723983.656994
1381,6457276570.74201
2,1, 7,21, 0, 6, 0.00,60.00,SummerDesignDay
9,15866895881.349555
1381,6457276570.74201
2,1, 7,21, 0, 7, 0.00,60.00,SummerDesignDay
9,18151838730.614305
1381,10415471470.885617
2,1, 7,21, 0, 8, 0.00,60.00,SummerDesignDay
9,19763213280.43947
1381,13050975776.656474
2,1, 7,21, 0, 9, 0.00,60.00,SummerDesignDay
9,19414669452.649946
1381,12719192107.108887
2,1, 7,21, 0,10, 0.00,60.00,SummerDesignDay
9,19359040170.443777
1381,12481369122.732428
2,1, 7,21, 0,11, 0.00,60.00,SummerDesignDay
9,19304848656.74048
1381,12096780618.25229
2,1, 7,21, 0,12, 0.00,60.00,SummerDesignDay
9,19413914786.31547
1381,12423754066.680432
2,1, 7,21, 0,13, 0.00,60.00,SummerDesignDay
9,19355870069.627264
1381,12376788637.70499
2,1, 7,21, 0,14, 0.00,60.00,SummerDesignDay
9,19307845367.34064
1381,12051669817.42006
2,1, 7,21, 0,15, 0.00,60.00,SummerDesignDay
9,19196498929.65234
1381,12031163769.057072
2,1, 7,21, 0,16, 0.00,60.00,SummerDesignDay
9,19108831895.768983
1381,12030700383.879876
2,1, 7,21, 0,17, 0.00,60.00,SummerDesignDay
9,18992339266.752607
1381,12030237402.861802
2,1, 7,21, 0,18, 0.00,60.00,SummerDesignDay
9,19003682573.44131
1381,12126491667.376643
2,1, 7,21, 0,19, 0.00,60.00,SummerDesignDay
9,19032980446.68773
1381,12792918718.13694
2,1, 7,21, 0,20, 0.00,60.00,SummerDesignDay
9,18980643856.126256
1381,12826828033.43536
2,1, 7,21, 0,21, 0.00,60.00,SummerDesignDay
9,19303439620.796037
1381,12757464392.453969
2,1, 7,21, 0,22, 0.00,60.00,SummerDesignDay
9,19252800787.930738
1381,12793812384.333855
2,1, 7,21, 0,23, 0.00,60.00,SummerDesignDay
9,18394389478.156827
1381,12424571317.275265
2,1, 7,21, 0,24, 0.00,60.00,SummerDesignDay
9,17944250893.170927
1381,11739042739.904076
1,BUFFALO NIAGARA INTL AP ANN CLG .4% CONDNS WB=>MDB 1,  42.93, -78.73,  -5.00, 215.00
2,1, 7,21, 0, 1, 0.00,60.00,SummerDesignDay
9,16374711953.824006
1381,11483000019.200272
2,1, 7,21, 0, 2, 0.00,60.00,SummerDesignDay
9,15081541529.37074
1381,6642653744.682075
2,1, 7,21, 0, 3, 0.00,60.00,SummerDesignDay
9,15066208825.281266
1381,6457276570.74201
2,1, 7,21, 0, 4, 0.00,60.00,SummerDesignDay
9,15121011982.544142
1381,6457276570.74201
2,1, 7,21, 0, 5, 0.00,60.00,SummerDesignDay
9,15183037136.08185
1381,6457276570.74201
2,1, 7,21, 0, 6, 0.00,60.00,SummerDesignDay
9,15701778662.706517
1381,6457276570.74201
2,1, 7,21, 0, 7, 0.00,60.00,SummerDesignDay
9,18096001078.834257
1381,11408048706.520909
2,1, 7,21, 0, 8, 0.00,60.00,SummerDesignDay
9,20141251761.054185
1381,12827009631.434685
2,1, 7,21, 0, 9, 0.00,60.00,SummerDesignDay
9,20380829069.15351
1381,12792976614.172326
2,1, 7,21, 0,10, 0.00,60.00,SummerDesignDay
9,20450106095.661359
1381,12424285362.163607
2,1, 7,21, 0,11, 0.00,60.00,SummerDesignDay
9,20581567648.15826
1381,12377340691.224595
2,1, 7,21, 0,12, 0.00,60.00,SummerDesignDay
9,20778164843.3649
1381,12424915660.333277
2,1, 7,21, 0,13, 0.00,60.00,SummerDesignDay
9,20255890408.130846
1381,12288982466.627852
2,1, 7,21, 0,14, 0.00,60.00,SummerDesignDay
9,20252089323.455457
1381,12107466127.333155
2,1, 7,21, 0,15, 0.00,60.00,SummerDesignDay
9,20150145304.4248
1381,11955089731.52336
2,1, 7,21, 0,16, 0.00,60.00,SummerDesignDay
9,20551631407.7831
1381,11954875811.761673
2,1, 7,21, 0,17, 0.00,60.00,SummerDesignDay
9,20351490190.579198
1381,11954658326.707699
2,1, 7,21, 0,18, 0.00,60.00,SummerDesignDay
9,20250801482.50221
1381,12377320454.402449
2,1, 7,21, 0,19, 0.00,60.00,SummerDesignDay
9,20119721381.659376
1381,12793776237.308064
2,1, 7,21, 0,20, 0.00,60.00,SummerDesignDay
9,19946637958.418298
1381,12827630314.779366
2,1, 7,21, 0,21, 0.00,60.00,SummerDesignDay
9,20172696880.771936
1381,12469202035.486668
2,1, 7,21, 0,22, 0.00,60.00,SummerDesignDay
9,19776258084.80176
1381,12792849325.606846
2,1, 7,21, 0,23, 0.00,60.00,SummerDesignDay
9,18717647450.5695
1381,12424550297.392075
2,1, 7,21, 0,24, 0.00,60.00,SummerDesignDay
9,18106144972.301069
1381,11890420820.909102
1,BUFFALO NIAGARA INTL AP ANN HTG 99.6% CONDNS DB 1,  42.93, -78.73,  -5.00, 215.00
2,1, 1,21, 0, 1, 0.00,60.00,WinterDesignDay
9,3489046881.1597425
1381,22598265714.544725
2,1, 1,21, 0, 2, 0.00,60.00,WinterDesignDay
9,3103488027.381462
1381,16412028255.826313
2,1, 1,21, 0, 3, 0.00,60.00,WinterDesignDay
9,3103776041.7419469
1381,16316995471.362307
2,1, 1,21, 0, 4, 0.00,60.00,WinterDesignDay
9,3103677407.114452
1381,16345926509.131384
2,1, 1,21, 0, 5, 0.00,60.00,WinterDesignDay
9,3103758295.566576
1381,16371164903.851283
2,1, 1,21, 0, 6, 0.00,60.00,WinterDesignDay
9,3133571281.2283298
1381,17026867755.292988
2,1, 1,21, 0, 7, 0.00,60.00,WinterDesignDay
9,3421840883.19089
1381,23790600825.052225
2,1, 1,21, 0, 8, 0.00,60.00,WinterDesignDay
9,3431375801.8917129
1381,23962315333.541429
2,1, 1,21, 0, 9, 0.00,60.00,WinterDesignDay
9,2762242599.3729999
1381,23890914941.78882
2,1, 1,21, 0,10, 0.00,60.00,WinterDesignDay
9,3746330844.074992
1381,25239848321.142953
2,1, 1,21, 0,11, 0.00,60.00,WinterDesignDay
9,3627225376.0147936
1381,25021289097.829713
2,1, 1,21, 0,12, 0.00,60.00,WinterDesignDay
9,3723387575.951523
1381,25224417968.672239
2,1, 1,21, 0,13, 0.00,60.00,WinterDesignDay
9,3709263806.0792987
1381,25203497690.72781
2,1, 1,21, 0,14, 0.00,60.00,WinterDesignDay
9,3621407537.869866
1381,24942872827.663316
2,1, 1,21, 0,15, 0.00,60.00,WinterDesignDay
9,3522343469.938492
1381,24673391525.96124
2,1, 1,21, 0,16, 0.00,60.00,WinterDesignDay
9,3517939894.2623469
1381,24662636821.7418
2,1, 1,21, 0,17, 0.00,60.00,WinterDesignDay
9,3424001372.057974
1381,24633251420.638525
2,1, 1,21, 0,18, 0.00,60.00,WinterDesignDay
9,4182988770.3120067
1381,24640975691.74645
2,1, 1,21, 0,19, 0.00,60.00,WinterDesignDay
9,4483646265.3189539
1381,25114870659.36763
2,1, 1,21, 0,20, 0.00,60.00,WinterDesignDay
9,4509457151.697535
1381,25103178121.340749
2,1, 1,21, 0,21, 0.00,60.00,WinterDesignDay
9,4388280036.995185
1381,25099907659.33909
2,1, 1,21, 0,22, 0.00,60.00,WinterDesignDay
9,4493909108.128884
1381,25089842869.18556
2,1, 1,21, 0,23, 0.00,60.00,WinterDesignDay
9,4113303656.9974868
1381,23238195588.640153
2,1, 1,21, 0,24, 0.00,60.00,WinterDesignDay
9,3921864279.042527
1381,23028678754.927408
End of Data
 Number of Records Written=         288
