Program Version,EnergyPlus, Version 9.5.0-de239b2e5f, YMD=2021.08.10 21:59
1,5,Environment Title[],Latitude[deg],Longitude[deg],Time Zone[],Elevation[m]
2,8,Day of Simulation[],Month[],Day of Month[],DST Indicator[1=yes 0=no],Hour[],StartMinute[],EndMinute[],DayType
3,5,Cumulative Day of Simulation[],Month[],Day of Month[],DST Indicator[1=yes 0=no],DayType  ! When Daily Report Variables Requested
4,2,Cumulative Days of Simulation[],Month[]  ! When Monthly Report Variables Requested
5,1,Cumulative Days of Simulation[] ! When Run Period Report Variables Requested
6,1,Calendar Year of Simulation[] ! When Annual Report Variables Requested
9,1,Electricity:Facility [J] !TimeStep
1381,1,NaturalGas:Facility [J] !TimeStep
End of Data Dictionary
1,BUFFALO NIAGARA INTL AP ANN CLG .4% CONDNS DB=>MWB 1 HVAC Sizing Pass 1,  42.93, -78.73,  -5.00, 215.00
2,1, 7,21, 0, 1, 0.00,60.00,SummerDesignDay
9,16273252309.6979
1381,11483000019.200272
2,1, 7,21, 0, 2, 0.00,60.00,SummerDesignDay
9,15022627692.151097
1381,6642653744.682075
2,1, 7,21, 0, 3, 0.00,60.00,SummerDesignDay
9,15036416681.999852
1381,6457276570.74201
2,1, 7,21, 0, 4, 0.00,60.00,SummerDesignDay
9,15147143113.950512
1381,6457276570.74201
2,1, 7,21, 0, 5, 0.00,60.00,SummerDesignDay
9,15244042693.127833
1381,6457276570.74201
2,1, 7,21, 0, 6, 0.00,60.00,SummerDesignDay
9,15811197959.800539
1381,6457276570.74201
2,1, 7,21, 0, 7, 0.00,60.00,SummerDesignDay
9,18129312525.154794
1381,10415471470.885617
2,1, 7,21, 0, 8, 0.00,60.00,SummerDesignDay
9,19755606691.14188
1381,13050975776.656273
2,1, 7,21, 0, 9, 0.00,60.00,SummerDesignDay
9,19396676460.53067
1381,12719192107.109074
2,1, 7,21, 0,10, 0.00,60.00,SummerDesignDay
9,19340797234.216066
1381,12481369122.716004
2,1, 7,21, 0,11, 0.00,60.00,SummerDesignDay
9,19285105941.016466
1381,12096780618.26883
2,1, 7,21, 0,12, 0.00,60.00,SummerDesignDay
9,19392536609.20883
1381,12423754066.680466
2,1, 7,21, 0,13, 0.00,60.00,SummerDesignDay
9,19333516508.944654
1381,12376788637.705029
2,1, 7,21, 0,14, 0.00,60.00,SummerDesignDay
9,19286007019.64664
1381,12051669817.404423
2,1, 7,21, 0,15, 0.00,60.00,SummerDesignDay
9,19174668723.286256
1381,12031163769.05735
2,1, 7,21, 0,16, 0.00,60.00,SummerDesignDay
9,19086267061.812967
1381,12030700383.88015
2,1, 7,21, 0,17, 0.00,60.00,SummerDesignDay
9,18968253573.3211
1381,12030237402.862074
2,1, 7,21, 0,18, 0.00,60.00,SummerDesignDay
9,18977630045.32206
1381,12126491667.39072
2,1, 7,21, 0,19, 0.00,60.00,SummerDesignDay
9,19003337484.242986
1381,12792918718.136963
2,1, 7,21, 0,20, 0.00,60.00,SummerDesignDay
9,18947020481.292844
1381,12826828033.435379
2,1, 7,21, 0,21, 0.00,60.00,SummerDesignDay
9,19267680515.16493
1381,12757464392.453995
2,1, 7,21, 0,22, 0.00,60.00,SummerDesignDay
9,19215516647.78794
1381,12793812384.333878
2,1, 7,21, 0,23, 0.00,60.00,SummerDesignDay
9,18347802273.378034
1381,12424571317.275202
2,1, 7,21, 0,24, 0.00,60.00,SummerDesignDay
9,17897084902.13074
1381,11739042739.810984
1,BUFFALO NIAGARA INTL AP ANN CLG .4% CONDNS WB=>MDB 1 HVAC Sizing Pass 1,  42.93, -78.73,  -5.00, 215.00
2,1, 7,21, 0, 1, 0.00,60.00,SummerDesignDay
9,16317738545.716839
1381,11483000019.200272
2,1, 7,21, 0, 2, 0.00,60.00,SummerDesignDay
9,15020719285.848715
1381,6642653744.682075
2,1, 7,21, 0, 3, 0.00,60.00,SummerDesignDay
9,15005180876.803828
1381,6457276570.74201
2,1, 7,21, 0, 4, 0.00,60.00,SummerDesignDay
9,15060149809.505063
1381,6457276570.74201
2,1, 7,21, 0, 5, 0.00,60.00,SummerDesignDay
9,15122453720.043
1381,6457276570.74201
2,1, 7,21, 0, 6, 0.00,60.00,SummerDesignDay
9,15647863761.709115
1381,6457276570.74201
2,1, 7,21, 0, 7, 0.00,60.00,SummerDesignDay
9,18069289378.5433
1381,10415471470.88562
2,1, 7,21, 0, 8, 0.00,60.00,SummerDesignDay
9,20141273292.2544
1381,13050975776.65645
2,1, 7,21, 0, 9, 0.00,60.00,SummerDesignDay
9,20367244081.3661
1381,12719192107.10891
2,1, 7,21, 0,10, 0.00,60.00,SummerDesignDay
9,20450975988.316308
1381,12481369122.715996
2,1, 7,21, 0,11, 0.00,60.00,SummerDesignDay
9,20584419254.96663
1381,12096780618.269001
2,1, 7,21, 0,12, 0.00,60.00,SummerDesignDay
9,20781924599.188215
1381,12423754066.680466
2,1, 7,21, 0,13, 0.00,60.00,SummerDesignDay
9,20238710000.606786
1381,12376788637.705029
2,1, 7,21, 0,14, 0.00,60.00,SummerDesignDay
9,20234558353.17687
1381,12051669817.404265
2,1, 7,21, 0,15, 0.00,60.00,SummerDesignDay
9,20133219073.382734
1381,12031163769.057358
2,1, 7,21, 0,16, 0.00,60.00,SummerDesignDay
9,20559523430.12306
1381,12030700383.880152
2,1, 7,21, 0,17, 0.00,60.00,SummerDesignDay
9,20350071478.741
1381,12030237402.862076
2,1, 7,21, 0,18, 0.00,60.00,SummerDesignDay
9,20246625172.89111
1381,12126491667.390862
2,1, 7,21, 0,19, 0.00,60.00,SummerDesignDay
9,20106168617.928709
1381,12792918718.136967
2,1, 7,21, 0,20, 0.00,60.00,SummerDesignDay
9,19920893817.509046
1381,12826828033.43538
2,1, 7,21, 0,21, 0.00,60.00,SummerDesignDay
9,20147178275.51924
1381,12757464392.453995
2,1, 7,21, 0,22, 0.00,60.00,SummerDesignDay
9,19741147105.647237
1381,12793812384.333878
2,1, 7,21, 0,23, 0.00,60.00,SummerDesignDay
9,18670246418.895704
1381,12424571317.275204
2,1, 7,21, 0,24, 0.00,60.00,SummerDesignDay
9,18063312586.314916
1381,11739042739.810873
1,BUFFALO NIAGARA INTL AP ANN HTG 99.6% CONDNS DB 1 HVAC Sizing Pass 1,  42.93, -78.73,  -5.00, 215.00
2,1, 1,21, 0, 1, 0.00,60.00,WinterDesignDay
9,3489050539.6995675
1381,22598263926.645757
2,1, 1,21, 0, 2, 0.00,60.00,WinterDesignDay
9,3103488004.2329409
1381,16412026467.92022
2,1, 1,21, 0, 3, 0.00,60.00,WinterDesignDay
9,3103776022.3044106
1381,16316993683.462506
2,1, 1,21, 0, 4, 0.00,60.00,WinterDesignDay
9,3103677384.0324804
1381,16345924721.236884
2,1, 1,21, 0, 5, 0.00,60.00,WinterDesignDay
9,3103758272.45178
1381,16371163115.959738
2,1, 1,21, 0, 6, 0.00,60.00,WinterDesignDay
9,3133571258.0272819
1381,17026865967.463208
2,1, 1,21, 0, 7, 0.00,60.00,WinterDesignDay
9,3421840859.9845368
1381,23790599037.322664
2,1, 1,21, 0, 8, 0.00,60.00,WinterDesignDay
9,3431375782.4006597
1381,23962313546.001428
2,1, 1,21, 0, 9, 0.00,60.00,WinterDesignDay
9,2762242576.1783168
1381,23890913153.790246
2,1, 1,21, 0,10, 0.00,60.00,WinterDesignDay
9,3746587880.8225138
1381,25239846533.6689
2,1, 1,21, 0,11, 0.00,60.00,WinterDesignDay
9,3626983664.6890909
1381,25021287309.787828
2,1, 1,21, 0,12, 0.00,60.00,WinterDesignDay
9,3723374830.3792564
1381,25224416180.670206
2,1, 1,21, 0,13, 0.00,60.00,WinterDesignDay
9,3709056470.0976417
1381,25203495902.690279
2,1, 1,21, 0,14, 0.00,60.00,WinterDesignDay
9,3621597735.7395226
1381,24942871039.685007
2,1, 1,21, 0,15, 0.00,60.00,WinterDesignDay
9,3522426844.41977
1381,24673389737.93516
2,1, 1,21, 0,16, 0.00,60.00,WinterDesignDay
9,3517916646.5890948
1381,24662635033.760587
2,1, 1,21, 0,17, 0.00,60.00,WinterDesignDay
9,3424032838.86528
1381,24633249632.98159
2,1, 1,21, 0,18, 0.00,60.00,WinterDesignDay
9,4183038297.3701078
1381,24640973903.772325
2,1, 1,21, 0,19, 0.00,60.00,WinterDesignDay
9,4483677834.126248
1381,25114868871.404165
2,1, 1,21, 0,20, 0.00,60.00,WinterDesignDay
9,4510048631.410644
1381,25103176333.33343
2,1, 1,21, 0,21, 0.00,60.00,WinterDesignDay
9,4387848943.233547
1381,25099905871.33095
2,1, 1,21, 0,22, 0.00,60.00,WinterDesignDay
9,4493875339.919028
1381,25089841081.22516
2,1, 1,21, 0,23, 0.00,60.00,WinterDesignDay
9,4112943811.057997
1381,23238193810.31202
2,1, 1,21, 0,24, 0.00,60.00,WinterDesignDay
9,3922174682.77279
1381,23028676968.86391
1,BUFFALO NIAGARA INTL AP ANN CLG .4% CONDNS DB=>MWB 1,  42.93, -78.73,  -5.00, 215.00
2,1, 7,21, 0, 1, 0.00,60.00,SummerDesignDay
9,16330254091.057082
1381,11483000019.200272
2,1, 7,21, 0, 2, 0.00,60.00,SummerDesignDay
9,15083275736.172289
1381,6642653744.682075
2,1, 7,21, 0, 3, 0.00,60.00,SummerDesignDay
9,15097170622.137309
1381,6457276570.74201
2,1, 7,21, 0, 4, 0.00,60.00,SummerDesignDay
9,15207347525.29865
1381,6457276570.74201
2,1, 7,21, 0, 5, 0.00,60.00,SummerDesignDay
9,15303723729.707249
1381,6457276570.74201
2,1, 7,21, 0, 6, 0.00,60.00,SummerDesignDay
9,15866895226.444722
1381,6457276570.74201
2,1, 7,21, 0, 7, 0.00,60.00,SummerDesignDay
9,18151839563.153299
1381,11408048706.521302
2,1, 7,21, 0, 8, 0.00,60.00,SummerDesignDay
9,19763218472.6952
1381,12827009631.42542
2,1, 7,21, 0, 9, 0.00,60.00,SummerDesignDay
9,19416436870.925313
1381,12792976614.210423
2,1, 7,21, 0,10, 0.00,60.00,SummerDesignDay
9,19358955602.894968
1381,12424285362.209939
2,1, 7,21, 0,11, 0.00,60.00,SummerDesignDay
9,19304214070.857809
1381,12377340691.273087
2,1, 7,21, 0,12, 0.00,60.00,SummerDesignDay
9,19414254450.500417
1381,12424915660.37899
2,1, 7,21, 0,13, 0.00,60.00,SummerDesignDay
9,19354161421.57022
1381,12288982377.902237
2,1, 7,21, 0,14, 0.00,60.00,SummerDesignDay
9,19309532259.89576
1381,12107466218.01401
2,1, 7,21, 0,15, 0.00,60.00,SummerDesignDay
9,19196795995.216756
1381,11955089731.75867
2,1, 7,21, 0,16, 0.00,60.00,SummerDesignDay
9,19108835926.40306
1381,11954875812.16677
2,1, 7,21, 0,17, 0.00,60.00,SummerDesignDay
9,18992155212.86211
1381,11954658327.120842
2,1, 7,21, 0,18, 0.00,60.00,SummerDesignDay
9,19002895214.67159
1381,12377320454.74362
2,1, 7,21, 0,19, 0.00,60.00,SummerDesignDay
9,19030987072.733369
1381,12793776237.443787
2,1, 7,21, 0,20, 0.00,60.00,SummerDesignDay
9,18980632282.075067
1381,12827630314.906327
2,1, 7,21, 0,21, 0.00,60.00,SummerDesignDay
9,19302049014.992959
1381,12469202035.66026
2,1, 7,21, 0,22, 0.00,60.00,SummerDesignDay
9,19254517025.98821
1381,12792849325.864766
2,1, 7,21, 0,23, 0.00,60.00,SummerDesignDay
9,18394504211.912164
1381,12424550297.266045
2,1, 7,21, 0,24, 0.00,60.00,SummerDesignDay
9,17944199118.125158
1381,11890420820.9952
1,BUFFALO NIAGARA INTL AP ANN CLG .4% CONDNS WB=>MDB 1,  42.93, -78.73,  -5.00, 215.00
2,1, 7,21, 0, 1, 0.00,60.00,SummerDesignDay
9,16374711721.736485
1381,11483000019.200272
2,1, 7,21, 0, 2, 0.00,60.00,SummerDesignDay
9,15081541294.608548
1381,6642653744.682075
2,1, 7,21, 0, 3, 0.00,60.00,SummerDesignDay
9,15066208573.051575
1381,6457276570.74201
2,1, 7,21, 0, 4, 0.00,60.00,SummerDesignDay
9,15121011738.07603
1381,6457276570.74201
2,1, 7,21, 0, 5, 0.00,60.00,SummerDesignDay
9,15183036863.40859
1381,6457276570.74201
2,1, 7,21, 0, 6, 0.00,60.00,SummerDesignDay
9,15701778015.742383
1381,6457276570.74201
2,1, 7,21, 0, 7, 0.00,60.00,SummerDesignDay
9,18091943983.739534
1381,10415471456.233309
2,1, 7,21, 0, 8, 0.00,60.00,SummerDesignDay
9,20141262674.370183
1381,13050975788.175107
2,1, 7,21, 0, 9, 0.00,60.00,SummerDesignDay
9,20376026017.70575
1381,12719192096.966397
2,1, 7,21, 0,10, 0.00,60.00,SummerDesignDay
9,20453132394.07451
1381,12481369122.754628
2,1, 7,21, 0,11, 0.00,60.00,SummerDesignDay
9,20580283327.69866
1381,12096780629.04103
2,1, 7,21, 0,12, 0.00,60.00,SummerDesignDay
9,20776941609.22993
1381,12423754066.702698
2,1, 7,21, 0,13, 0.00,60.00,SummerDesignDay
9,20257597255.997938
1381,12376788637.728253
2,1, 7,21, 0,14, 0.00,60.00,SummerDesignDay
9,20251453648.8144
1381,12051669807.217862
2,1, 7,21, 0,15, 0.00,60.00,SummerDesignDay
9,20149825632.923238
1381,12031163769.238942
2,1, 7,21, 0,16, 0.00,60.00,SummerDesignDay
9,20553024742.93903
1381,12030700384.059466
2,1, 7,21, 0,17, 0.00,60.00,SummerDesignDay
9,20349277591.250295
1381,12030237403.039067
2,1, 7,21, 0,18, 0.00,60.00,SummerDesignDay
9,20253025385.22067
1381,12126491676.55722
2,1, 7,21, 0,19, 0.00,60.00,SummerDesignDay
9,20122397361.500905
1381,12792918718.076558
2,1, 7,21, 0,20, 0.00,60.00,SummerDesignDay
9,19945147166.271894
1381,12826828033.378533
2,1, 7,21, 0,21, 0.00,60.00,SummerDesignDay
9,20175724030.64301
1381,12757464392.389258
2,1, 7,21, 0,22, 0.00,60.00,SummerDesignDay
9,19774537664.610399
1381,12793812384.278174
2,1, 7,21, 0,23, 0.00,60.00,SummerDesignDay
9,18714531360.814584
1381,12424571317.276539
2,1, 7,21, 0,24, 0.00,60.00,SummerDesignDay
9,18109206999.110788
1381,11739042779.378888
1,BUFFALO NIAGARA INTL AP ANN HTG 99.6% CONDNS DB 1,  42.93, -78.73,  -5.00, 215.00
2,1, 1,21, 0, 1, 0.00,60.00,WinterDesignDay
9,3489046854.236133
1381,22598263926.645757
2,1, 1,21, 0, 2, 0.00,60.00,WinterDesignDay
9,3103488000.457853
1381,16412026467.92022
2,1, 1,21, 0, 3, 0.00,60.00,WinterDesignDay
9,3103776014.8183376
1381,16316993683.462506
2,1, 1,21, 0, 4, 0.00,60.00,WinterDesignDay
9,3103677380.189978
1381,16345924721.236884
2,1, 1,21, 0, 5, 0.00,60.00,WinterDesignDay
9,3103758268.642967
1381,16371163115.959738
2,1, 1,21, 0, 6, 0.00,60.00,WinterDesignDay
9,3133571254.3047235
1381,17026865967.463208
2,1, 1,21, 0, 7, 0.00,60.00,WinterDesignDay
9,3421840856.267056
1381,23790599037.322664
2,1, 1,21, 0, 8, 0.00,60.00,WinterDesignDay
9,3431375774.968235
1381,23962313546.001428
2,1, 1,21, 0, 9, 0.00,60.00,WinterDesignDay
9,2762242572.4496328
1381,23890913153.790246
2,1, 1,21, 0,10, 0.00,60.00,WinterDesignDay
9,3746330817.152179
1381,25239846533.6689
2,1, 1,21, 0,11, 0.00,60.00,WinterDesignDay
9,3627225349.091627
1381,25021287309.787828
2,1, 1,21, 0,12, 0.00,60.00,WinterDesignDay
9,3723387549.0289804
1381,25224416180.670206
2,1, 1,21, 0,13, 0.00,60.00,WinterDesignDay
9,3709263779.157645
1381,25203495902.690279
2,1, 1,21, 0,14, 0.00,60.00,WinterDesignDay
9,3621407510.948591
1381,24942871039.685007
2,1, 1,21, 0,15, 0.00,60.00,WinterDesignDay
9,3522343443.0214059
1381,24673389737.934999
2,1, 1,21, 0,16, 0.00,60.00,WinterDesignDay
9,3517939867.355249
1381,24662635033.721536
2,1, 1,21, 0,17, 0.00,60.00,WinterDesignDay
9,3424001345.1871759
1381,24633249632.93641
2,1, 1,21, 0,18, 0.00,60.00,WinterDesignDay
9,4182988743.5346558
1381,24640973903.738256
2,1, 1,21, 0,19, 0.00,60.00,WinterDesignDay
9,4483646238.475196
1381,25114868871.404165
2,1, 1,21, 0,20, 0.00,60.00,WinterDesignDay
9,4509457126.157089
1381,25103176333.33343
2,1, 1,21, 0,21, 0.00,60.00,WinterDesignDay
9,4388280008.399523
1381,25099905871.33095
2,1, 1,21, 0,22, 0.00,60.00,WinterDesignDay
9,4493909080.842228
1381,25089841081.22516
2,1, 1,21, 0,23, 0.00,60.00,WinterDesignDay
9,4113303629.5559337
1381,23238193811.847948
2,1, 1,21, 0,24, 0.00,60.00,WinterDesignDay
9,3921864251.7917635
1381,23028676967.242818
End of Data
 Number of Records Written=         288
