Program Version,EnergyPlus, Version 9.5.0-de239b2e5f, YMD=2021.08.10 21:32
1,5,Environment Title[],Latitude[deg],Longitude[deg],Time Zone[],Elevation[m]
2,8,Day of Simulation[],Month[],Day of Month[],DST Indicator[1=yes 0=no],Hour[],StartMinute[],EndMinute[],DayType
3,5,Cumulative Day of Simulation[],Month[],Day of Month[],DST Indicator[1=yes 0=no],DayType  ! When Daily Report Variables Requested
4,2,Cumulative Days of Simulation[],Month[]  ! When Monthly Report Variables Requested
5,1,Cumulative Days of Simulation[] ! When Run Period Report Variables Requested
6,1,Calendar Year of Simulation[] ! When Annual Report Variables Requested
9,1,Electricity:Facility [J] !TimeStep
1381,1,NaturalGas:Facility [J] !TimeStep
End of Data Dictionary
1,BUFFALO NIAGARA INTL AP ANN CLG .4% CONDNS DB=>MWB 1 HVAC Sizing Pass 1,  42.93, -78.73,  -5.00, 215.00
2,1, 7,21, 0, 1, 0.00,60.00,SummerDesignDay
9,16273252506.185217
1381,11483000019.200272
2,1, 7,21, 0, 2, 0.00,60.00,SummerDesignDay
9,15022627941.045157
1381,6642653744.682075
2,1, 7,21, 0, 3, 0.00,60.00,SummerDesignDay
9,15036416931.725758
1381,6457276570.74201
2,1, 7,21, 0, 4, 0.00,60.00,SummerDesignDay
9,15147143384.273245
1381,6457276570.74201
2,1, 7,21, 0, 5, 0.00,60.00,SummerDesignDay
9,15244042923.23585
1381,6457276570.74201
2,1, 7,21, 0, 6, 0.00,60.00,SummerDesignDay
9,15811198638.947348
1381,6457276570.74201
2,1, 7,21, 0, 7, 0.00,60.00,SummerDesignDay
9,18129313526.308866
1381,10415471470.885617
2,1, 7,21, 0, 8, 0.00,60.00,SummerDesignDay
9,19755607278.67412
1381,13050975776.656273
2,1, 7,21, 0, 9, 0.00,60.00,SummerDesignDay
9,19396676852.703683
1381,12719192107.109074
2,1, 7,21, 0,10, 0.00,60.00,SummerDesignDay
9,19340797726.210107
1381,12481369122.716004
2,1, 7,21, 0,11, 0.00,60.00,SummerDesignDay
9,19285106342.39093
1381,12096780618.26883
2,1, 7,21, 0,12, 0.00,60.00,SummerDesignDay
9,19392536812.296724
1381,12423754066.680466
2,1, 7,21, 0,13, 0.00,60.00,SummerDesignDay
9,19333516675.22277
1381,12376788637.705029
2,1, 7,21, 0,14, 0.00,60.00,SummerDesignDay
9,19286007269.920419
1381,12051669817.404423
2,1, 7,21, 0,15, 0.00,60.00,SummerDesignDay
9,19174668815.732179
1381,12031163769.05735
2,1, 7,21, 0,16, 0.00,60.00,SummerDesignDay
9,19086267034.130647
1381,12030700383.88015
2,1, 7,21, 0,17, 0.00,60.00,SummerDesignDay
9,18968253548.710065
1381,12030237402.862074
2,1, 7,21, 0,18, 0.00,60.00,SummerDesignDay
9,18977630720.904344
1381,12126491667.39072
2,1, 7,21, 0,19, 0.00,60.00,SummerDesignDay
9,19003337580.38981
1381,12792918718.136963
2,1, 7,21, 0,20, 0.00,60.00,SummerDesignDay
9,18947031499.940687
1381,12826828033.435379
2,1, 7,21, 0,21, 0.00,60.00,SummerDesignDay
9,19267688326.039575
1381,12757464392.453995
2,1, 7,21, 0,22, 0.00,60.00,SummerDesignDay
9,19215519553.858274
1381,12793812384.333878
2,1, 7,21, 0,23, 0.00,60.00,SummerDesignDay
9,18347803732.29662
1381,12424571317.275202
2,1, 7,21, 0,24, 0.00,60.00,SummerDesignDay
9,17897086063.965745
1381,11739042739.810984
1,BUFFALO NIAGARA INTL AP ANN CLG .4% CONDNS WB=>MDB 1 HVAC Sizing Pass 1,  42.93, -78.73,  -5.00, 215.00
2,1, 7,21, 0, 1, 0.00,60.00,SummerDesignDay
9,16317531049.471077
1381,11483000019.200272
2,1, 7,21, 0, 2, 0.00,60.00,SummerDesignDay
9,15020584831.624377
1381,6642653744.682075
2,1, 7,21, 0, 3, 0.00,60.00,SummerDesignDay
9,15005181132.53928
1381,6457276570.74201
2,1, 7,21, 0, 4, 0.00,60.00,SummerDesignDay
9,15060149968.17624
1381,6457276570.74201
2,1, 7,21, 0, 5, 0.00,60.00,SummerDesignDay
9,15122453994.323744
1381,6457276570.74201
2,1, 7,21, 0, 6, 0.00,60.00,SummerDesignDay
9,15648049842.227452
1381,6457276570.74201
2,1, 7,21, 0, 7, 0.00,60.00,SummerDesignDay
9,18073162645.095697
1381,10415471470.885617
2,1, 7,21, 0, 8, 0.00,60.00,SummerDesignDay
9,20141284699.62931
1381,13050975776.656474
2,1, 7,21, 0, 9, 0.00,60.00,SummerDesignDay
9,20370280524.37753
1381,12719192108.013344
2,1, 7,21, 0,10, 0.00,60.00,SummerDesignDay
9,20448033590.442998
1381,12481369122.712559
2,1, 7,21, 0,11, 0.00,60.00,SummerDesignDay
9,20586336146.108728
1381,12096780617.309529
2,1, 7,21, 0,12, 0.00,60.00,SummerDesignDay
9,20782809188.10146
1381,12423754066.678517
2,1, 7,21, 0,13, 0.00,60.00,SummerDesignDay
9,20238712601.175699
1381,12376788637.702988
2,1, 7,21, 0,14, 0.00,60.00,SummerDesignDay
9,20233505205.947145
1381,12051669818.298151
2,1, 7,21, 0,15, 0.00,60.00,SummerDesignDay
9,20133243848.074247
1381,12031163769.041424
2,1, 7,21, 0,16, 0.00,60.00,SummerDesignDay
9,20558123756.43828
1381,12030700383.864418
2,1, 7,21, 0,17, 0.00,60.00,SummerDesignDay
9,20352468602.900609
1381,12030237402.846547
2,1, 7,21, 0,18, 0.00,60.00,SummerDesignDay
9,20245187196.41302
1381,12126491666.586419
2,1, 7,21, 0,19, 0.00,60.00,SummerDesignDay
9,20105485410.230649
1381,12792918718.135672
2,1, 7,21, 0,20, 0.00,60.00,SummerDesignDay
9,19922384282.299005
1381,12826828033.434166
2,1, 7,21, 0,21, 0.00,60.00,SummerDesignDay
9,20145534250.723707
1381,12757464392.45261
2,1, 7,21, 0,22, 0.00,60.00,SummerDesignDay
9,19741148481.761976
1381,12793812384.33269
2,1, 7,21, 0,23, 0.00,60.00,SummerDesignDay
9,18673246351.829927
1381,12424571317.27527
2,1, 7,21, 0,24, 0.00,60.00,SummerDesignDay
9,18060301079.01782
1381,11739042740.523922
1,BUFFALO NIAGARA INTL AP ANN HTG 99.6% CONDNS DB 1 HVAC Sizing Pass 1,  42.93, -78.73,  -5.00, 215.00
2,1, 1,21, 0, 1, 0.00,60.00,WinterDesignDay
9,3489050566.6231768
1381,22598265714.544679
2,1, 1,21, 0, 2, 0.00,60.00,WinterDesignDay
9,3103488031.15655
1381,16412028255.826363
2,1, 1,21, 0, 3, 0.00,60.00,WinterDesignDay
9,3103776049.2280199
1381,16316995471.362336
2,1, 1,21, 0, 4, 0.00,60.00,WinterDesignDay
9,3103677410.95609
1381,16345926509.131413
2,1, 1,21, 0, 5, 0.00,60.00,WinterDesignDay
9,3103758299.37539
1381,16371164903.85131
2,1, 1,21, 0, 6, 0.00,60.00,WinterDesignDay
9,3133571284.9508898
1381,17026867755.293005
2,1, 1,21, 0, 7, 0.00,60.00,WinterDesignDay
9,3421840886.9084036
1381,23790600825.05223
2,1, 1,21, 0, 8, 0.00,60.00,WinterDesignDay
9,3431375809.323994
1381,23962315333.541425
2,1, 1,21, 0, 9, 0.00,60.00,WinterDesignDay
9,2762242603.10202
1381,23890914941.788835
2,1, 1,21, 0,10, 0.00,60.00,WinterDesignDay
9,3746587907.746184
1381,25239848321.142946
2,1, 1,21, 0,11, 0.00,60.00,WinterDesignDay
9,3626983691.6131508
1381,25021289097.829729
2,1, 1,21, 0,12, 0.00,60.00,WinterDesignDay
9,3723374857.3028085
1381,25224417968.672235
2,1, 1,21, 0,13, 0.00,60.00,WinterDesignDay
9,3709056497.0211398
1381,25203497690.72784
2,1, 1,21, 0,14, 0.00,60.00,WinterDesignDay
9,3621597762.6630079
1381,24942872827.663324
2,1, 1,21, 0,15, 0.00,60.00,WinterDesignDay
9,3522426871.3440425
1381,24673391525.961408
2,1, 1,21, 0,16, 0.00,60.00,WinterDesignDay
9,3517916673.5146448
1381,24662636821.780885
2,1, 1,21, 0,17, 0.00,60.00,WinterDesignDay
9,3424032865.794676
1381,24633251420.683694
2,1, 1,21, 0,18, 0.00,60.00,WinterDesignDay
9,4183038324.265789
1381,24640975691.78047
2,1, 1,21, 0,19, 0.00,60.00,WinterDesignDay
9,4483677861.062546
1381,25114870659.367635
2,1, 1,21, 0,20, 0.00,60.00,WinterDesignDay
9,4510048658.3539509
1381,25103178121.340719
2,1, 1,21, 0,21, 0.00,60.00,WinterDesignDay
9,4387848970.100225
1381,25099907659.339059
2,1, 1,21, 0,22, 0.00,60.00,WinterDesignDay
9,4493875366.823834
1381,25089842869.185514
2,1, 1,21, 0,23, 0.00,60.00,WinterDesignDay
9,4112943837.9740517
1381,23238195587.104227
2,1, 1,21, 0,24, 0.00,60.00,WinterDesignDay
9,3922174709.2820265
1381,23028678756.5485
1,BUFFALO NIAGARA INTL AP ANN CLG .4% CONDNS DB=>MWB 1,  42.93, -78.73,  -5.00, 215.00
2,1, 7,21, 0, 1, 0.00,60.00,SummerDesignDay
9,16330518756.362774
1381,11483000019.200272
2,1, 7,21, 0, 2, 0.00,60.00,SummerDesignDay
9,15083388951.115529
1381,6642653744.682075
2,1, 7,21, 0, 3, 0.00,60.00,SummerDesignDay
9,15097170873.727797
1381,6457276570.74201
2,1, 7,21, 0, 4, 0.00,60.00,SummerDesignDay
9,15207347916.75081
1381,6457276570.74201
2,1, 7,21, 0, 5, 0.00,60.00,SummerDesignDay
9,15303723967.817957
1381,6457276570.74201
2,1, 7,21, 0, 6, 0.00,60.00,SummerDesignDay
9,15866895888.566235
1381,6457276570.74201
2,1, 7,21, 0, 7, 0.00,60.00,SummerDesignDay
9,18151838635.508504
1381,10415471470.885617
2,1, 7,21, 0, 8, 0.00,60.00,SummerDesignDay
9,19763213241.856977
1381,13050975776.656474
2,1, 7,21, 0, 9, 0.00,60.00,SummerDesignDay
9,19414669383.882486
1381,12719192107.108887
2,1, 7,21, 0,10, 0.00,60.00,SummerDesignDay
9,19359040103.20772
1381,12481369122.732428
2,1, 7,21, 0,11, 0.00,60.00,SummerDesignDay
9,19304848743.20455
1381,12096780618.25229
2,1, 7,21, 0,12, 0.00,60.00,SummerDesignDay
9,19413914714.567346
1381,12423754066.680432
2,1, 7,21, 0,13, 0.00,60.00,SummerDesignDay
9,19355870003.404386
1381,12376788637.70499
2,1, 7,21, 0,14, 0.00,60.00,SummerDesignDay
9,19307845297.31558
1381,12051669817.42006
2,1, 7,21, 0,15, 0.00,60.00,SummerDesignDay
9,19196498823.080728
1381,12031163769.057072
2,1, 7,21, 0,16, 0.00,60.00,SummerDesignDay
9,19108831990.30618
1381,12030700383.879876
2,1, 7,21, 0,17, 0.00,60.00,SummerDesignDay
9,18992338468.290357
1381,12030237402.861802
2,1, 7,21, 0,18, 0.00,60.00,SummerDesignDay
9,19003682728.63968
1381,12126491667.376643
2,1, 7,21, 0,19, 0.00,60.00,SummerDesignDay
9,19032980581.217557
1381,12792918718.13694
2,1, 7,21, 0,20, 0.00,60.00,SummerDesignDay
9,18980643729.163457
1381,12826828033.43536
2,1, 7,21, 0,21, 0.00,60.00,SummerDesignDay
9,19303439600.495553
1381,12757464392.453969
2,1, 7,21, 0,22, 0.00,60.00,SummerDesignDay
9,19252800733.63187
1381,12793812384.333855
2,1, 7,21, 0,23, 0.00,60.00,SummerDesignDay
9,18394389635.921705
1381,12424571317.275265
2,1, 7,21, 0,24, 0.00,60.00,SummerDesignDay
9,17944250904.81759
1381,11739042739.904076
1,BUFFALO NIAGARA INTL AP ANN CLG .4% CONDNS WB=>MDB 1,  42.93, -78.73,  -5.00, 215.00
2,1, 7,21, 0, 1, 0.00,60.00,SummerDesignDay
9,16374711966.635823
1381,11483000019.200272
2,1, 7,21, 0, 2, 0.00,60.00,SummerDesignDay
9,15081541527.522507
1381,6642653744.682075
2,1, 7,21, 0, 3, 0.00,60.00,SummerDesignDay
9,15066208813.488602
1381,6457276570.74201
2,1, 7,21, 0, 4, 0.00,60.00,SummerDesignDay
9,15121011991.803503
1381,6457276570.74201
2,1, 7,21, 0, 5, 0.00,60.00,SummerDesignDay
9,15183037132.93914
1381,6457276570.74201
2,1, 7,21, 0, 6, 0.00,60.00,SummerDesignDay
9,15701778707.502346
1381,6457276570.74201
2,1, 7,21, 0, 7, 0.00,60.00,SummerDesignDay
9,18091943406.53076
1381,11408048706.520909
2,1, 7,21, 0, 8, 0.00,60.00,SummerDesignDay
9,20141262382.222238
1381,12827009631.434685
2,1, 7,21, 0, 9, 0.00,60.00,SummerDesignDay
9,20377792828.94071
1381,12792976614.172326
2,1, 7,21, 0,10, 0.00,60.00,SummerDesignDay
9,20453048472.57664
1381,12424285362.163607
2,1, 7,21, 0,11, 0.00,60.00,SummerDesignDay
9,20579650702.961748
1381,12377340691.224595
2,1, 7,21, 0,12, 0.00,60.00,SummerDesignDay
9,20777280477.35234
1381,12424915660.333277
2,1, 7,21, 0,13, 0.00,60.00,SummerDesignDay
9,20255889173.898553
1381,12288982466.627852
2,1, 7,21, 0,14, 0.00,60.00,SummerDesignDay
9,20253142069.593099
1381,12107466127.333155
2,1, 7,21, 0,15, 0.00,60.00,SummerDesignDay
9,20150120030.32362
1381,11955089731.52336
2,1, 7,21, 0,16, 0.00,60.00,SummerDesignDay
9,20553031093.57674
1381,11954875811.761673
2,1, 7,21, 0,17, 0.00,60.00,SummerDesignDay
9,20349092880.648298
1381,11954658326.707699
2,1, 7,21, 0,18, 0.00,60.00,SummerDesignDay
9,20252239656.036249
1381,12377320454.402449
2,1, 7,21, 0,19, 0.00,60.00,SummerDesignDay
9,20120404289.52307
1381,12793776237.308064
2,1, 7,21, 0,20, 0.00,60.00,SummerDesignDay
9,19945159564.445287
1381,12827630314.779366
2,1, 7,21, 0,21, 0.00,60.00,SummerDesignDay
9,20174351005.643278
1381,12469202035.486668
2,1, 7,21, 0,22, 0.00,60.00,SummerDesignDay
9,19776259855.45788
1381,12792849325.606846
2,1, 7,21, 0,23, 0.00,60.00,SummerDesignDay
9,18714649206.734285
1381,12424550297.392075
2,1, 7,21, 0,24, 0.00,60.00,SummerDesignDay
9,18109157599.324735
1381,11890420820.909102
1,BUFFALO NIAGARA INTL AP ANN HTG 99.6% CONDNS DB 1,  42.93, -78.73,  -5.00, 215.00
2,1, 1,21, 0, 1, 0.00,60.00,WinterDesignDay
9,3489046881.1597425
1381,22598265714.544679
2,1, 1,21, 0, 2, 0.00,60.00,WinterDesignDay
9,3103488027.381462
1381,16412028255.826363
2,1, 1,21, 0, 3, 0.00,60.00,WinterDesignDay
9,3103776041.7419469
1381,16316995471.362336
2,1, 1,21, 0, 4, 0.00,60.00,WinterDesignDay
9,3103677407.1144526
1381,16345926509.131413
2,1, 1,21, 0, 5, 0.00,60.00,WinterDesignDay
9,3103758295.5665767
1381,16371164903.85131
2,1, 1,21, 0, 6, 0.00,60.00,WinterDesignDay
9,3133571281.22833
1381,17026867755.293005
2,1, 1,21, 0, 7, 0.00,60.00,WinterDesignDay
9,3421840883.1907889
1381,23790600825.05223
2,1, 1,21, 0, 8, 0.00,60.00,WinterDesignDay
9,3431375801.891865
1381,23962315333.541425
2,1, 1,21, 0, 9, 0.00,60.00,WinterDesignDay
9,2762242599.3731148
1381,23890914941.788835
2,1, 1,21, 0,10, 0.00,60.00,WinterDesignDay
9,3746330844.074998
1381,25239848321.142946
2,1, 1,21, 0,11, 0.00,60.00,WinterDesignDay
9,3627225376.014994
1381,25021289097.829729
2,1, 1,21, 0,12, 0.00,60.00,WinterDesignDay
9,3723387575.951303
1381,25224417968.672235
2,1, 1,21, 0,13, 0.00,60.00,WinterDesignDay
9,3709263806.0793025
1381,25203497690.72784
2,1, 1,21, 0,14, 0.00,60.00,WinterDesignDay
9,3621407537.8701035
1381,24942872827.663324
2,1, 1,21, 0,15, 0.00,60.00,WinterDesignDay
9,3522343469.938495
1381,24673391525.961244
2,1, 1,21, 0,16, 0.00,60.00,WinterDesignDay
9,3517939894.2621285
1381,24662636821.741838
2,1, 1,21, 0,17, 0.00,60.00,WinterDesignDay
9,3424001372.0579755
1381,24633251420.63851
2,1, 1,21, 0,18, 0.00,60.00,WinterDesignDay
9,4182988770.312008
1381,24640975691.746404
2,1, 1,21, 0,19, 0.00,60.00,WinterDesignDay
9,4483646265.318954
1381,25114870659.367635
2,1, 1,21, 0,20, 0.00,60.00,WinterDesignDay
9,4509457151.6975359
1381,25103178121.340719
2,1, 1,21, 0,21, 0.00,60.00,WinterDesignDay
9,4388280036.995186
1381,25099907659.339059
2,1, 1,21, 0,22, 0.00,60.00,WinterDesignDay
9,4493909108.12913
1381,25089842869.185514
2,1, 1,21, 0,23, 0.00,60.00,WinterDesignDay
9,4113303655.9379336
1381,23238195588.640153
2,1, 1,21, 0,24, 0.00,60.00,WinterDesignDay
9,3921864279.4396035
1381,23028678754.92741
End of Data
 Number of Records Written=         288
