Program Version,EnergyPlus, Version 9.5.0-de239b2e5f, YMD=2021.08.10 22:20
1,5,Environment Title[],Latitude[deg],Longitude[deg],Time Zone[],Elevation[m]
2,8,Day of Simulation[],Month[],Day of Month[],DST Indicator[1=yes 0=no],Hour[],StartMinute[],EndMinute[],DayType
3,5,Cumulative Day of Simulation[],Month[],Day of Month[],DST Indicator[1=yes 0=no],DayType  ! When Daily Report Variables Requested
4,2,Cumulative Days of Simulation[],Month[]  ! When Monthly Report Variables Requested
5,1,Cumulative Days of Simulation[] ! When Run Period Report Variables Requested
6,1,Calendar Year of Simulation[] ! When Annual Report Variables Requested
9,1,Electricity:Facility [J] !TimeStep
1381,1,NaturalGas:Facility [J] !TimeStep
End of Data Dictionary
1,BUFFALO NIAGARA INTL AP ANN CLG .4% CONDNS DB=>MWB 1 HVAC Sizing Pass 1,  42.93, -78.73,  -5.00, 215.00
2,1, 7,21, 0, 1, 0.00,60.00,SummerDesignDay
9,16273252300.043049
1381,11483000019.200272
2,1, 7,21, 0, 2, 0.00,60.00,SummerDesignDay
9,15022627689.55808
1381,6642653744.682075
2,1, 7,21, 0, 3, 0.00,60.00,SummerDesignDay
9,15036416666.288086
1381,6457276570.74201
2,1, 7,21, 0, 4, 0.00,60.00,SummerDesignDay
9,15147143127.708645
1381,6457276570.74201
2,1, 7,21, 0, 5, 0.00,60.00,SummerDesignDay
9,15244042694.987294
1381,6457276570.74201
2,1, 7,21, 0, 6, 0.00,60.00,SummerDesignDay
9,15811197954.315463
1381,6457276570.74201
2,1, 7,21, 0, 7, 0.00,60.00,SummerDesignDay
9,18129312516.812715
1381,10415471470.885617
2,1, 7,21, 0, 8, 0.00,60.00,SummerDesignDay
9,19755606714.606927
1381,13050975776.656273
2,1, 7,21, 0, 9, 0.00,60.00,SummerDesignDay
9,19396676442.080316
1381,12719192107.109074
2,1, 7,21, 0,10, 0.00,60.00,SummerDesignDay
9,19340797228.86813
1381,12481369122.716004
2,1, 7,21, 0,11, 0.00,60.00,SummerDesignDay
9,19285105939.75431
1381,12096780618.26883
2,1, 7,21, 0,12, 0.00,60.00,SummerDesignDay
9,19392536657.39383
1381,12423754066.680466
2,1, 7,21, 0,13, 0.00,60.00,SummerDesignDay
9,19333516376.8595
1381,12376788637.705029
2,1, 7,21, 0,14, 0.00,60.00,SummerDesignDay
9,19286007132.898099
1381,12051669817.404423
2,1, 7,21, 0,15, 0.00,60.00,SummerDesignDay
9,19174668725.31501
1381,12031163769.05735
2,1, 7,21, 0,16, 0.00,60.00,SummerDesignDay
9,19086267072.06873
1381,12030700383.88015
2,1, 7,21, 0,17, 0.00,60.00,SummerDesignDay
9,18968253603.63865
1381,12030237402.862074
2,1, 7,21, 0,18, 0.00,60.00,SummerDesignDay
9,18977630088.237878
1381,12126491667.39072
2,1, 7,21, 0,19, 0.00,60.00,SummerDesignDay
9,19003337480.106786
1381,12792918718.136963
2,1, 7,21, 0,20, 0.00,60.00,SummerDesignDay
9,18947020397.29411
1381,12826828033.435379
2,1, 7,21, 0,21, 0.00,60.00,SummerDesignDay
9,19267680562.87157
1381,12757464392.453995
2,1, 7,21, 0,22, 0.00,60.00,SummerDesignDay
9,19215516689.069807
1381,12793812384.333878
2,1, 7,21, 0,23, 0.00,60.00,SummerDesignDay
9,18347802172.339326
1381,12424571317.275202
2,1, 7,21, 0,24, 0.00,60.00,SummerDesignDay
9,17897084908.072668
1381,11739042739.810984
1,BUFFALO NIAGARA INTL AP ANN CLG .4% CONDNS WB=>MDB 1 HVAC Sizing Pass 1,  42.93, -78.73,  -5.00, 215.00
2,1, 7,21, 0, 1, 0.00,60.00,SummerDesignDay
9,16317738542.69739
1381,11483000019.200272
2,1, 7,21, 0, 2, 0.00,60.00,SummerDesignDay
9,15020719284.733887
1381,6642653744.682075
2,1, 7,21, 0, 3, 0.00,60.00,SummerDesignDay
9,15005180881.713637
1381,6457276570.74201
2,1, 7,21, 0, 4, 0.00,60.00,SummerDesignDay
9,15060149706.336268
1381,6457276570.74201
2,1, 7,21, 0, 5, 0.00,60.00,SummerDesignDay
9,15122453727.84045
1381,6457276570.74201
2,1, 7,21, 0, 6, 0.00,60.00,SummerDesignDay
9,15647863723.915774
1381,6457276570.74201
2,1, 7,21, 0, 7, 0.00,60.00,SummerDesignDay
9,18069289393.07068
1381,10415471470.88562
2,1, 7,21, 0, 8, 0.00,60.00,SummerDesignDay
9,20141273297.982328
1381,13050975776.65645
2,1, 7,21, 0, 9, 0.00,60.00,SummerDesignDay
9,20367244072.118539
1381,12719192107.10891
2,1, 7,21, 0,10, 0.00,60.00,SummerDesignDay
9,20450975909.01441
1381,12481369122.715996
2,1, 7,21, 0,11, 0.00,60.00,SummerDesignDay
9,20584419150.82684
1381,12096780618.269001
2,1, 7,21, 0,12, 0.00,60.00,SummerDesignDay
9,20781924723.012407
1381,12423754066.680466
2,1, 7,21, 0,13, 0.00,60.00,SummerDesignDay
9,20238709994.632116
1381,12376788637.705029
2,1, 7,21, 0,14, 0.00,60.00,SummerDesignDay
9,20234558381.506059
1381,12051669817.404265
2,1, 7,21, 0,15, 0.00,60.00,SummerDesignDay
9,20133219053.70759
1381,12031163769.057358
2,1, 7,21, 0,16, 0.00,60.00,SummerDesignDay
9,20559523436.39986
1381,12030700383.880152
2,1, 7,21, 0,17, 0.00,60.00,SummerDesignDay
9,20350071530.91017
1381,12030237402.862076
2,1, 7,21, 0,18, 0.00,60.00,SummerDesignDay
9,20246625047.142499
1381,12126491667.390862
2,1, 7,21, 0,19, 0.00,60.00,SummerDesignDay
9,20106168578.626344
1381,12792918718.136967
2,1, 7,21, 0,20, 0.00,60.00,SummerDesignDay
9,19920893855.37913
1381,12826828033.43538
2,1, 7,21, 0,21, 0.00,60.00,SummerDesignDay
9,20147178318.904397
1381,12757464392.453995
2,1, 7,21, 0,22, 0.00,60.00,SummerDesignDay
9,19741145909.01149
1381,12793812384.333878
2,1, 7,21, 0,23, 0.00,60.00,SummerDesignDay
9,18670246374.445825
1381,12424571317.275204
2,1, 7,21, 0,24, 0.00,60.00,SummerDesignDay
9,18063312538.27577
1381,11739042739.810873
1,BUFFALO NIAGARA INTL AP ANN HTG 99.6% CONDNS DB 1 HVAC Sizing Pass 1,  42.93, -78.73,  -5.00, 215.00
2,1, 1,21, 0, 1, 0.00,60.00,WinterDesignDay
9,3489050539.699559
1381,22598263926.64575
2,1, 1,21, 0, 2, 0.00,60.00,WinterDesignDay
9,3103488004.2329328
1381,16412026467.920212
2,1, 1,21, 0, 3, 0.00,60.00,WinterDesignDay
9,3103776022.3044025
1381,16316993683.462479
2,1, 1,21, 0, 4, 0.00,60.00,WinterDesignDay
9,3103677384.032472
1381,16345924721.23688
2,1, 1,21, 0, 5, 0.00,60.00,WinterDesignDay
9,3103758272.451772
1381,16371163115.95975
2,1, 1,21, 0, 6, 0.00,60.00,WinterDesignDay
9,3133571258.0272738
1381,17026865967.463212
2,1, 1,21, 0, 7, 0.00,60.00,WinterDesignDay
9,3421840859.9845278
1381,23790599037.322664
2,1, 1,21, 0, 8, 0.00,60.00,WinterDesignDay
9,3431375782.4006516
1381,23962313546.001417
2,1, 1,21, 0, 9, 0.00,60.00,WinterDesignDay
9,2762242576.1783087
1381,23890913153.790239
2,1, 1,21, 0,10, 0.00,60.00,WinterDesignDay
9,3746587880.822505
1381,25239846533.668878
2,1, 1,21, 0,11, 0.00,60.00,WinterDesignDay
9,3626983664.6890828
1381,25021287309.787828
2,1, 1,21, 0,12, 0.00,60.00,WinterDesignDay
9,3723374830.3792479
1381,25224416180.670217
2,1, 1,21, 0,13, 0.00,60.00,WinterDesignDay
9,3709056470.097633
1381,25203495902.690324
2,1, 1,21, 0,14, 0.00,60.00,WinterDesignDay
9,3621597735.739514
1381,24942871039.685007
2,1, 1,21, 0,15, 0.00,60.00,WinterDesignDay
9,3522426844.419762
1381,24673389737.93515
2,1, 1,21, 0,16, 0.00,60.00,WinterDesignDay
9,3517916646.5890877
1381,24662635033.76059
2,1, 1,21, 0,17, 0.00,60.00,WinterDesignDay
9,3424032838.8652727
1381,24633249632.98158
2,1, 1,21, 0,18, 0.00,60.00,WinterDesignDay
9,4183038297.370099
1381,24640973903.77233
2,1, 1,21, 0,19, 0.00,60.00,WinterDesignDay
9,4483677834.12624
1381,25114868871.40417
2,1, 1,21, 0,20, 0.00,60.00,WinterDesignDay
9,4510048631.410636
1381,25103176333.33347
2,1, 1,21, 0,21, 0.00,60.00,WinterDesignDay
9,4387848943.23354
1381,25099905871.330968
2,1, 1,21, 0,22, 0.00,60.00,WinterDesignDay
9,4493875339.91902
1381,25089841081.225149
2,1, 1,21, 0,23, 0.00,60.00,WinterDesignDay
9,4112943811.0579898
1381,23238193810.312036
2,1, 1,21, 0,24, 0.00,60.00,WinterDesignDay
9,3922174682.7727825
1381,23028676968.863904
1,BUFFALO NIAGARA INTL AP ANN CLG .4% CONDNS DB=>MWB 1,  42.93, -78.73,  -5.00, 215.00
2,1, 7,21, 0, 1, 0.00,60.00,SummerDesignDay
9,16330254097.437659
1381,11483000019.200272
2,1, 7,21, 0, 2, 0.00,60.00,SummerDesignDay
9,15083275733.572369
1381,6642653744.682075
2,1, 7,21, 0, 3, 0.00,60.00,SummerDesignDay
9,15097170605.874077
1381,6457276570.74201
2,1, 7,21, 0, 4, 0.00,60.00,SummerDesignDay
9,15207347537.531
1381,6457276570.74201
2,1, 7,21, 0, 5, 0.00,60.00,SummerDesignDay
9,15303723714.059655
1381,6457276570.74201
2,1, 7,21, 0, 6, 0.00,60.00,SummerDesignDay
9,15866895228.64211
1381,6457276570.74201
2,1, 7,21, 0, 7, 0.00,60.00,SummerDesignDay
9,18151839622.191217
1381,11408048706.521302
2,1, 7,21, 0, 8, 0.00,60.00,SummerDesignDay
9,19763218531.494554
1381,12827009631.42542
2,1, 7,21, 0, 9, 0.00,60.00,SummerDesignDay
9,19416436856.864847
1381,12792976614.210423
2,1, 7,21, 0,10, 0.00,60.00,SummerDesignDay
9,19358955508.061277
1381,12424285362.209939
2,1, 7,21, 0,11, 0.00,60.00,SummerDesignDay
9,19304214089.805017
1381,12377340691.273087
2,1, 7,21, 0,12, 0.00,60.00,SummerDesignDay
9,19414254446.825147
1381,12424915660.37899
2,1, 7,21, 0,13, 0.00,60.00,SummerDesignDay
9,19354161368.162229
1381,12288982377.902237
2,1, 7,21, 0,14, 0.00,60.00,SummerDesignDay
9,19309532337.743036
1381,12107466218.01401
2,1, 7,21, 0,15, 0.00,60.00,SummerDesignDay
9,19196795877.943429
1381,11955089731.75867
2,1, 7,21, 0,16, 0.00,60.00,SummerDesignDay
9,19108836044.9329
1381,11954875812.16677
2,1, 7,21, 0,17, 0.00,60.00,SummerDesignDay
9,18992155269.884069
1381,11954658327.120842
2,1, 7,21, 0,18, 0.00,60.00,SummerDesignDay
9,19002895138.070299
1381,12377320454.74362
2,1, 7,21, 0,19, 0.00,60.00,SummerDesignDay
9,19030987091.027624
1381,12793776237.443787
2,1, 7,21, 0,20, 0.00,60.00,SummerDesignDay
9,18980632316.622304
1381,12827630314.906327
2,1, 7,21, 0,21, 0.00,60.00,SummerDesignDay
9,19302049089.601266
1381,12469202035.66026
2,1, 7,21, 0,22, 0.00,60.00,SummerDesignDay
9,19254517059.086439
1381,12792849325.864766
2,1, 7,21, 0,23, 0.00,60.00,SummerDesignDay
9,18394504193.364725
1381,12424550297.266045
2,1, 7,21, 0,24, 0.00,60.00,SummerDesignDay
9,17944199108.59121
1381,11890420820.9952
1,BUFFALO NIAGARA INTL AP ANN CLG .4% CONDNS WB=>MDB 1,  42.93, -78.73,  -5.00, 215.00
2,1, 7,21, 0, 1, 0.00,60.00,SummerDesignDay
9,16374711718.791874
1381,11483000019.200272
2,1, 7,21, 0, 2, 0.00,60.00,SummerDesignDay
9,15081541292.449536
1381,6642653744.682075
2,1, 7,21, 0, 3, 0.00,60.00,SummerDesignDay
9,15066208571.640349
1381,6457276570.74201
2,1, 7,21, 0, 4, 0.00,60.00,SummerDesignDay
9,15121011725.986514
1381,6457276570.74201
2,1, 7,21, 0, 5, 0.00,60.00,SummerDesignDay
9,15183036848.896258
1381,6457276570.74201
2,1, 7,21, 0, 6, 0.00,60.00,SummerDesignDay
9,15701777996.13
1381,6457276570.74201
2,1, 7,21, 0, 7, 0.00,60.00,SummerDesignDay
9,18091944013.04756
1381,10415471456.233309
2,1, 7,21, 0, 8, 0.00,60.00,SummerDesignDay
9,20141262672.401777
1381,13050975788.175107
2,1, 7,21, 0, 9, 0.00,60.00,SummerDesignDay
9,20376026044.56463
1381,12719192096.966397
2,1, 7,21, 0,10, 0.00,60.00,SummerDesignDay
9,20453132216.794076
1381,12481369122.754628
2,1, 7,21, 0,11, 0.00,60.00,SummerDesignDay
9,20580283214.717023
1381,12096780629.04103
2,1, 7,21, 0,12, 0.00,60.00,SummerDesignDay
9,20776941587.824125
1381,12423754066.702698
2,1, 7,21, 0,13, 0.00,60.00,SummerDesignDay
9,20257597251.58257
1381,12376788637.728253
2,1, 7,21, 0,14, 0.00,60.00,SummerDesignDay
9,20251453682.116357
1381,12051669807.217862
2,1, 7,21, 0,15, 0.00,60.00,SummerDesignDay
9,20149825613.46824
1381,12031163769.238942
2,1, 7,21, 0,16, 0.00,60.00,SummerDesignDay
9,20553024783.87575
1381,12030700384.059466
2,1, 7,21, 0,17, 0.00,60.00,SummerDesignDay
9,20349277617.55528
1381,12030237403.039067
2,1, 7,21, 0,18, 0.00,60.00,SummerDesignDay
9,20253025259.422357
1381,12126491676.55722
2,1, 7,21, 0,19, 0.00,60.00,SummerDesignDay
9,20122397405.471364
1381,12792918718.076558
2,1, 7,21, 0,20, 0.00,60.00,SummerDesignDay
9,19945147215.373388
1381,12826828033.378533
2,1, 7,21, 0,21, 0.00,60.00,SummerDesignDay
9,20175724070.19864
1381,12757464392.389258
2,1, 7,21, 0,22, 0.00,60.00,SummerDesignDay
9,19774536514.490594
1381,12793812384.278174
2,1, 7,21, 0,23, 0.00,60.00,SummerDesignDay
9,18714531309.286104
1381,12424571317.276539
2,1, 7,21, 0,24, 0.00,60.00,SummerDesignDay
9,18109206950.551446
1381,11739042779.378888
1,BUFFALO NIAGARA INTL AP ANN HTG 99.6% CONDNS DB 1,  42.93, -78.73,  -5.00, 215.00
2,1, 1,21, 0, 1, 0.00,60.00,WinterDesignDay
9,3489046854.236125
1381,22598263926.64575
2,1, 1,21, 0, 2, 0.00,60.00,WinterDesignDay
9,3103488000.4578449
1381,16412026467.920212
2,1, 1,21, 0, 3, 0.00,60.00,WinterDesignDay
9,3103776014.817537
1381,16316993683.462479
2,1, 1,21, 0, 4, 0.00,60.00,WinterDesignDay
9,3103677380.189971
1381,16345924721.23688
2,1, 1,21, 0, 5, 0.00,60.00,WinterDesignDay
9,3103758268.64296
1381,16371163115.95975
2,1, 1,21, 0, 6, 0.00,60.00,WinterDesignDay
9,3133571254.3047158
1381,17026865967.463212
2,1, 1,21, 0, 7, 0.00,60.00,WinterDesignDay
9,3421840856.2673027
1381,23790599037.322664
2,1, 1,21, 0, 8, 0.00,60.00,WinterDesignDay
9,3431375774.967999
1381,23962313546.001417
2,1, 1,21, 0, 9, 0.00,60.00,WinterDesignDay
9,2762242572.4496257
1381,23890913153.790239
2,1, 1,21, 0,10, 0.00,60.00,WinterDesignDay
9,3746330817.152449
1381,25239846533.668878
2,1, 1,21, 0,11, 0.00,60.00,WinterDesignDay
9,3627225349.092147
1381,25021287309.787828
2,1, 1,21, 0,12, 0.00,60.00,WinterDesignDay
9,3723387549.02917
1381,25224416180.670217
2,1, 1,21, 0,13, 0.00,60.00,WinterDesignDay
9,3709263779.158459
1381,25203495902.690324
2,1, 1,21, 0,14, 0.00,60.00,WinterDesignDay
9,3621407510.9498646
1381,24942871039.685007
2,1, 1,21, 0,15, 0.00,60.00,WinterDesignDay
9,3522343443.0240328
1381,24673389737.934988
2,1, 1,21, 0,16, 0.00,60.00,WinterDesignDay
9,3517939867.361475
1381,24662635033.721544
2,1, 1,21, 0,17, 0.00,60.00,WinterDesignDay
9,3424001345.2081458
1381,24633249632.936399
2,1, 1,21, 0,18, 0.00,60.00,WinterDesignDay
9,4182988743.5927379
1381,24640973903.738264
2,1, 1,21, 0,19, 0.00,60.00,WinterDesignDay
9,4483646238.506673
1381,25114868871.40417
2,1, 1,21, 0,20, 0.00,60.00,WinterDesignDay
9,4509457126.162726
1381,25103176333.33347
2,1, 1,21, 0,21, 0.00,60.00,WinterDesignDay
9,4388280008.392705
1381,25099905871.330968
2,1, 1,21, 0,22, 0.00,60.00,WinterDesignDay
9,4493909080.840177
1381,25089841081.225149
2,1, 1,21, 0,23, 0.00,60.00,WinterDesignDay
9,4113303629.8742859
1381,23238193811.84796
2,1, 1,21, 0,24, 0.00,60.00,WinterDesignDay
9,3921864251.6765267
1381,23028676967.24281
End of Data
 Number of Records Written=         288
