Program Version,EnergyPlus, Version 9.5.0-de239b2e5f, YMD=2021.08.10 21:54
1,5,Environment Title[],Latitude[deg],Longitude[deg],Time Zone[],Elevation[m]
2,8,Day of Simulation[],Month[],Day of Month[],DST Indicator[1=yes 0=no],Hour[],StartMinute[],EndMinute[],DayType
3,5,Cumulative Day of Simulation[],Month[],Day of Month[],DST Indicator[1=yes 0=no],DayType  ! When Daily Report Variables Requested
4,2,Cumulative Days of Simulation[],Month[]  ! When Monthly Report Variables Requested
5,1,Cumulative Days of Simulation[] ! When Run Period Report Variables Requested
6,1,Calendar Year of Simulation[] ! When Annual Report Variables Requested
9,1,Electricity:Facility [J] !TimeStep
1381,1,NaturalGas:Facility [J] !TimeStep
End of Data Dictionary
1,BUFFALO NIAGARA INTL AP ANN CLG .4% CONDNS DB=>MWB 1 HVAC Sizing Pass 1,  42.93, -78.73,  -5.00, 215.00
2,1, 7,21, 0, 1, 0.00,60.00,SummerDesignDay
9,16273252300.043053
1381,11483000019.200272
2,1, 7,21, 0, 2, 0.00,60.00,SummerDesignDay
9,15022627689.558089
1381,6642653744.682075
2,1, 7,21, 0, 3, 0.00,60.00,SummerDesignDay
9,15036416666.288098
1381,6457276570.74201
2,1, 7,21, 0, 4, 0.00,60.00,SummerDesignDay
9,15147143127.708659
1381,6457276570.74201
2,1, 7,21, 0, 5, 0.00,60.00,SummerDesignDay
9,15244042694.987303
1381,6457276570.74201
2,1, 7,21, 0, 6, 0.00,60.00,SummerDesignDay
9,15811197954.315524
1381,6457276570.74201
2,1, 7,21, 0, 7, 0.00,60.00,SummerDesignDay
9,18129312516.812917
1381,10415471470.885617
2,1, 7,21, 0, 8, 0.00,60.00,SummerDesignDay
9,19755606714.60696
1381,13050975776.656273
2,1, 7,21, 0, 9, 0.00,60.00,SummerDesignDay
9,19396676442.080354
1381,12719192107.109074
2,1, 7,21, 0,10, 0.00,60.00,SummerDesignDay
9,19340797228.868158
1381,12481369122.716004
2,1, 7,21, 0,11, 0.00,60.00,SummerDesignDay
9,19285105939.75431
1381,12096780618.26883
2,1, 7,21, 0,12, 0.00,60.00,SummerDesignDay
9,19392536657.393835
1381,12423754066.680466
2,1, 7,21, 0,13, 0.00,60.00,SummerDesignDay
9,19333516376.859518
1381,12376788637.705029
2,1, 7,21, 0,14, 0.00,60.00,SummerDesignDay
9,19286007132.898099
1381,12051669817.404423
2,1, 7,21, 0,15, 0.00,60.00,SummerDesignDay
9,19174668725.315
1381,12031163769.05735
2,1, 7,21, 0,16, 0.00,60.00,SummerDesignDay
9,19086267072.068765
1381,12030700383.88015
2,1, 7,21, 0,17, 0.00,60.00,SummerDesignDay
9,18968253603.63866
1381,12030237402.862074
2,1, 7,21, 0,18, 0.00,60.00,SummerDesignDay
9,18977630088.23789
1381,12126491667.39072
2,1, 7,21, 0,19, 0.00,60.00,SummerDesignDay
9,19003337480.106817
1381,12792918718.136963
2,1, 7,21, 0,20, 0.00,60.00,SummerDesignDay
9,18947020397.294137
1381,12826828033.435379
2,1, 7,21, 0,21, 0.00,60.00,SummerDesignDay
9,19267680562.87163
1381,12757464392.453995
2,1, 7,21, 0,22, 0.00,60.00,SummerDesignDay
9,19215516689.069818
1381,12793812384.333878
2,1, 7,21, 0,23, 0.00,60.00,SummerDesignDay
9,18347802172.33935
1381,12424571317.275202
2,1, 7,21, 0,24, 0.00,60.00,SummerDesignDay
9,17897084908.072687
1381,11739042739.810984
1,BUFFALO NIAGARA INTL AP ANN CLG .4% CONDNS WB=>MDB 1 HVAC Sizing Pass 1,  42.93, -78.73,  -5.00, 215.00
2,1, 7,21, 0, 1, 0.00,60.00,SummerDesignDay
9,16317738572.13296
1381,11483000019.200272
2,1, 7,21, 0, 2, 0.00,60.00,SummerDesignDay
9,15020719296.243634
1381,6642653744.682075
2,1, 7,21, 0, 3, 0.00,60.00,SummerDesignDay
9,15005180892.043684
1381,6457276570.74201
2,1, 7,21, 0, 4, 0.00,60.00,SummerDesignDay
9,15060149818.88671
1381,6457276570.74201
2,1, 7,21, 0, 5, 0.00,60.00,SummerDesignDay
9,15122453723.722596
1381,6457276570.74201
2,1, 7,21, 0, 6, 0.00,60.00,SummerDesignDay
9,15647863742.941828
1381,6457276570.74201
2,1, 7,21, 0, 7, 0.00,60.00,SummerDesignDay
9,18069289400.294687
1381,10415471470.88562
2,1, 7,21, 0, 8, 0.00,60.00,SummerDesignDay
9,20141273252.327009
1381,13050975776.65645
2,1, 7,21, 0, 9, 0.00,60.00,SummerDesignDay
9,20367244024.064485
1381,12719192107.10891
2,1, 7,21, 0,10, 0.00,60.00,SummerDesignDay
9,20450975970.45113
1381,12481369122.715996
2,1, 7,21, 0,11, 0.00,60.00,SummerDesignDay
9,20584418981.7382
1381,12096780618.269001
2,1, 7,21, 0,12, 0.00,60.00,SummerDesignDay
9,20781924843.177297
1381,12423754066.680466
2,1, 7,21, 0,13, 0.00,60.00,SummerDesignDay
9,20238710082.254495
1381,12376788637.705029
2,1, 7,21, 0,14, 0.00,60.00,SummerDesignDay
9,20234558540.36753
1381,12051669817.404265
2,1, 7,21, 0,15, 0.00,60.00,SummerDesignDay
9,20133219083.562715
1381,12031163769.057358
2,1, 7,21, 0,16, 0.00,60.00,SummerDesignDay
9,20559523422.40002
1381,12030700383.880152
2,1, 7,21, 0,17, 0.00,60.00,SummerDesignDay
9,20350071519.194417
1381,12030237402.862076
2,1, 7,21, 0,18, 0.00,60.00,SummerDesignDay
9,20246625120.915716
1381,12126491667.390862
2,1, 7,21, 0,19, 0.00,60.00,SummerDesignDay
9,20106168530.936265
1381,12792918718.136967
2,1, 7,21, 0,20, 0.00,60.00,SummerDesignDay
9,19920893840.926904
1381,12826828033.43538
2,1, 7,21, 0,21, 0.00,60.00,SummerDesignDay
9,20147178256.12231
1381,12757464392.453995
2,1, 7,21, 0,22, 0.00,60.00,SummerDesignDay
9,19741145919.865324
1381,12793812384.333878
2,1, 7,21, 0,23, 0.00,60.00,SummerDesignDay
9,18670246375.205404
1381,12424571317.275204
2,1, 7,21, 0,24, 0.00,60.00,SummerDesignDay
9,18063312495.951597
1381,11739042739.810873
1,BUFFALO NIAGARA INTL AP ANN HTG 99.6% CONDNS DB 1 HVAC Sizing Pass 1,  42.93, -78.73,  -5.00, 215.00
2,1, 1,21, 0, 1, 0.00,60.00,WinterDesignDay
9,3489050539.6995675
1381,22598263926.64573
2,1, 1,21, 0, 2, 0.00,60.00,WinterDesignDay
9,3103488004.2329409
1381,16412026467.920203
2,1, 1,21, 0, 3, 0.00,60.00,WinterDesignDay
9,3103776022.3044106
1381,16316993683.462496
2,1, 1,21, 0, 4, 0.00,60.00,WinterDesignDay
9,3103677384.0324804
1381,16345924721.236887
2,1, 1,21, 0, 5, 0.00,60.00,WinterDesignDay
9,3103758272.4517805
1381,16371163115.959736
2,1, 1,21, 0, 6, 0.00,60.00,WinterDesignDay
9,3133571258.0272815
1381,17026865967.463208
2,1, 1,21, 0, 7, 0.00,60.00,WinterDesignDay
9,3421840859.9845359
1381,23790599037.322649
2,1, 1,21, 0, 8, 0.00,60.00,WinterDesignDay
9,3431375782.4006597
1381,23962313546.001428
2,1, 1,21, 0, 9, 0.00,60.00,WinterDesignDay
9,2762242576.1783168
1381,23890913153.79023
2,1, 1,21, 0,10, 0.00,60.00,WinterDesignDay
9,3746587880.8225138
1381,25239846533.668878
2,1, 1,21, 0,11, 0.00,60.00,WinterDesignDay
9,3626983664.6890909
1381,25021287309.787775
2,1, 1,21, 0,12, 0.00,60.00,WinterDesignDay
9,3723374830.3792564
1381,25224416180.670194
2,1, 1,21, 0,13, 0.00,60.00,WinterDesignDay
9,3709056470.0976417
1381,25203495902.69028
2,1, 1,21, 0,14, 0.00,60.00,WinterDesignDay
9,3621597735.7395226
1381,24942871039.685018
2,1, 1,21, 0,15, 0.00,60.00,WinterDesignDay
9,3522426844.41977
1381,24673389737.935159
2,1, 1,21, 0,16, 0.00,60.00,WinterDesignDay
9,3517916646.589095
1381,24662635033.760549
2,1, 1,21, 0,17, 0.00,60.00,WinterDesignDay
9,3424032838.8652808
1381,24633249632.981557
2,1, 1,21, 0,18, 0.00,60.00,WinterDesignDay
9,4183038297.3701078
1381,24640973903.77229
2,1, 1,21, 0,19, 0.00,60.00,WinterDesignDay
9,4483677834.126248
1381,25114868871.404188
2,1, 1,21, 0,20, 0.00,60.00,WinterDesignDay
9,4510048631.410644
1381,25103176333.333398
2,1, 1,21, 0,21, 0.00,60.00,WinterDesignDay
9,4387848943.233547
1381,25099905871.330976
2,1, 1,21, 0,22, 0.00,60.00,WinterDesignDay
9,4493875339.919028
1381,25089841081.225145
2,1, 1,21, 0,23, 0.00,60.00,WinterDesignDay
9,4112943811.057997
1381,23238193810.312025
2,1, 1,21, 0,24, 0.00,60.00,WinterDesignDay
9,3922174682.7727906
1381,23028676968.86391
1,BUFFALO NIAGARA INTL AP ANN CLG .4% CONDNS DB=>MWB 1,  42.93, -78.73,  -5.00, 215.00
2,1, 7,21, 0, 1, 0.00,60.00,SummerDesignDay
9,16330254099.449192
1381,11483000019.200272
2,1, 7,21, 0, 2, 0.00,60.00,SummerDesignDay
9,15083275752.101712
1381,6642653744.682075
2,1, 7,21, 0, 3, 0.00,60.00,SummerDesignDay
9,15097170600.356499
1381,6457276570.74201
2,1, 7,21, 0, 4, 0.00,60.00,SummerDesignDay
9,15207347536.543869
1381,6457276570.74201
2,1, 7,21, 0, 5, 0.00,60.00,SummerDesignDay
9,15303723704.226437
1381,6457276570.74201
2,1, 7,21, 0, 6, 0.00,60.00,SummerDesignDay
9,15866895235.147198
1381,6457276570.74201
2,1, 7,21, 0, 7, 0.00,60.00,SummerDesignDay
9,18151839633.689805
1381,11408048706.521302
2,1, 7,21, 0, 8, 0.00,60.00,SummerDesignDay
9,19763218529.170114
1381,12827009631.42542
2,1, 7,21, 0, 9, 0.00,60.00,SummerDesignDay
9,19416436793.514524
1381,12792976614.210423
2,1, 7,21, 0,10, 0.00,60.00,SummerDesignDay
9,19358955496.57877
1381,12424285362.209939
2,1, 7,21, 0,11, 0.00,60.00,SummerDesignDay
9,19304214036.361928
1381,12377340691.273087
2,1, 7,21, 0,12, 0.00,60.00,SummerDesignDay
9,19414254508.693738
1381,12424915660.37899
2,1, 7,21, 0,13, 0.00,60.00,SummerDesignDay
9,19354161422.056764
1381,12288982377.902237
2,1, 7,21, 0,14, 0.00,60.00,SummerDesignDay
9,19309532409.78838
1381,12107466218.01401
2,1, 7,21, 0,15, 0.00,60.00,SummerDesignDay
9,19196795908.1247
1381,11955089731.75867
2,1, 7,21, 0,16, 0.00,60.00,SummerDesignDay
9,19108835967.891305
1381,11954875812.16677
2,1, 7,21, 0,17, 0.00,60.00,SummerDesignDay
9,18992155175.996427
1381,11954658327.120842
2,1, 7,21, 0,18, 0.00,60.00,SummerDesignDay
9,19002895157.384176
1381,12377320454.74362
2,1, 7,21, 0,19, 0.00,60.00,SummerDesignDay
9,19030987111.942136
1381,12793776237.443787
2,1, 7,21, 0,20, 0.00,60.00,SummerDesignDay
9,18980632187.198846
1381,12827630314.906327
2,1, 7,21, 0,21, 0.00,60.00,SummerDesignDay
9,19302049068.80332
1381,12469202035.66026
2,1, 7,21, 0,22, 0.00,60.00,SummerDesignDay
9,19254517080.799364
1381,12792849325.864766
2,1, 7,21, 0,23, 0.00,60.00,SummerDesignDay
9,18394504125.842119
1381,12424550297.266045
2,1, 7,21, 0,24, 0.00,60.00,SummerDesignDay
9,17944199090.508485
1381,11890420820.9952
1,BUFFALO NIAGARA INTL AP ANN CLG .4% CONDNS WB=>MDB 1,  42.93, -78.73,  -5.00, 215.00
2,1, 7,21, 0, 1, 0.00,60.00,SummerDesignDay
9,16374711736.71169
1381,11483000019.200272
2,1, 7,21, 0, 2, 0.00,60.00,SummerDesignDay
9,15081541302.982552
1381,6642653744.682075
2,1, 7,21, 0, 3, 0.00,60.00,SummerDesignDay
9,15066208585.070099
1381,6457276570.74201
2,1, 7,21, 0, 4, 0.00,60.00,SummerDesignDay
9,15121011640.029837
1381,6457276570.74201
2,1, 7,21, 0, 5, 0.00,60.00,SummerDesignDay
9,15183036855.357945
1381,6457276570.74201
2,1, 7,21, 0, 6, 0.00,60.00,SummerDesignDay
9,15701777951.727776
1381,6457276570.74201
2,1, 7,21, 0, 7, 0.00,60.00,SummerDesignDay
9,18091944008.173044
1381,10415471456.233309
2,1, 7,21, 0, 8, 0.00,60.00,SummerDesignDay
9,20141262667.709104
1381,13050975788.175107
2,1, 7,21, 0, 9, 0.00,60.00,SummerDesignDay
9,20376026006.61306
1381,12719192096.966397
2,1, 7,21, 0,10, 0.00,60.00,SummerDesignDay
9,20453132261.01777
1381,12481369122.754628
2,1, 7,21, 0,11, 0.00,60.00,SummerDesignDay
9,20580283111.892255
1381,12096780629.04103
2,1, 7,21, 0,12, 0.00,60.00,SummerDesignDay
9,20776941854.536775
1381,12423754066.702698
2,1, 7,21, 0,13, 0.00,60.00,SummerDesignDay
9,20257597253.32017
1381,12376788637.728253
2,1, 7,21, 0,14, 0.00,60.00,SummerDesignDay
9,20251453733.664686
1381,12051669807.217862
2,1, 7,21, 0,15, 0.00,60.00,SummerDesignDay
9,20149825601.313108
1381,12031163769.238942
2,1, 7,21, 0,16, 0.00,60.00,SummerDesignDay
9,20553024724.045377
1381,12030700384.059466
2,1, 7,21, 0,17, 0.00,60.00,SummerDesignDay
9,20349277661.914285
1381,12030237403.039067
2,1, 7,21, 0,18, 0.00,60.00,SummerDesignDay
9,20253025395.77854
1381,12126491676.55722
2,1, 7,21, 0,19, 0.00,60.00,SummerDesignDay
9,20122397321.28165
1381,12792918718.076558
2,1, 7,21, 0,20, 0.00,60.00,SummerDesignDay
9,19945147254.153547
1381,12826828033.378533
2,1, 7,21, 0,21, 0.00,60.00,SummerDesignDay
9,20175724038.282209
1381,12757464392.389258
2,1, 7,21, 0,22, 0.00,60.00,SummerDesignDay
9,19774537689.175584
1381,12793812384.278174
2,1, 7,21, 0,23, 0.00,60.00,SummerDesignDay
9,18714531316.878545
1381,12424571317.276539
2,1, 7,21, 0,24, 0.00,60.00,SummerDesignDay
9,18109206957.024454
1381,11739042779.378888
1,BUFFALO NIAGARA INTL AP ANN HTG 99.6% CONDNS DB 1,  42.93, -78.73,  -5.00, 215.00
2,1, 1,21, 0, 1, 0.00,60.00,WinterDesignDay
9,3489046854.236133
1381,22598263926.64573
2,1, 1,21, 0, 2, 0.00,60.00,WinterDesignDay
9,3103488000.457853
1381,16412026467.920203
2,1, 1,21, 0, 3, 0.00,60.00,WinterDesignDay
9,3103776014.817545
1381,16316993683.462496
2,1, 1,21, 0, 4, 0.00,60.00,WinterDesignDay
9,3103677380.189979
1381,16345924721.236887
2,1, 1,21, 0, 5, 0.00,60.00,WinterDesignDay
9,3103758268.642968
1381,16371163115.959736
2,1, 1,21, 0, 6, 0.00,60.00,WinterDesignDay
9,3133571254.3047235
1381,17026865967.463208
2,1, 1,21, 0, 7, 0.00,60.00,WinterDesignDay
9,3421840856.2673108
1381,23790599037.322649
2,1, 1,21, 0, 8, 0.00,60.00,WinterDesignDay
9,3431375774.968007
1381,23962313546.001428
2,1, 1,21, 0, 9, 0.00,60.00,WinterDesignDay
9,2762242572.4496338
1381,23890913153.79023
2,1, 1,21, 0,10, 0.00,60.00,WinterDesignDay
9,3746330817.1524579
1381,25239846533.668878
2,1, 1,21, 0,11, 0.00,60.00,WinterDesignDay
9,3627225349.092155
1381,25021287309.787775
2,1, 1,21, 0,12, 0.00,60.00,WinterDesignDay
9,3723387549.029178
1381,25224416180.670194
2,1, 1,21, 0,13, 0.00,60.00,WinterDesignDay
9,3709263779.158468
1381,25203495902.69028
2,1, 1,21, 0,14, 0.00,60.00,WinterDesignDay
9,3621407510.949873
1381,24942871039.685018
2,1, 1,21, 0,15, 0.00,60.00,WinterDesignDay
9,3522343443.02404
1381,24673389737.934995
2,1, 1,21, 0,16, 0.00,60.00,WinterDesignDay
9,3517939867.3614828
1381,24662635033.721498
2,1, 1,21, 0,17, 0.00,60.00,WinterDesignDay
9,3424001345.2081539
1381,24633249632.936376
2,1, 1,21, 0,18, 0.00,60.00,WinterDesignDay
9,4182988743.5927464
1381,24640973903.73822
2,1, 1,21, 0,19, 0.00,60.00,WinterDesignDay
9,4483646238.5066809
1381,25114868871.404188
2,1, 1,21, 0,20, 0.00,60.00,WinterDesignDay
9,4509457126.162734
1381,25103176333.333398
2,1, 1,21, 0,21, 0.00,60.00,WinterDesignDay
9,4388280008.392714
1381,25099905871.330976
2,1, 1,21, 0,22, 0.00,60.00,WinterDesignDay
9,4493909080.840186
1381,25089841081.225145
2,1, 1,21, 0,23, 0.00,60.00,WinterDesignDay
9,4113303629.874294
1381,23238193811.847955
2,1, 1,21, 0,24, 0.00,60.00,WinterDesignDay
9,3921864251.6765348
1381,23028676967.242818
End of Data
 Number of Records Written=         288
