Program Version,EnergyPlus, Version 9.5.0-de239b2e5f, YMD=2021.08.10 17:59
1,5,Environment Title[],Latitude[deg],Longitude[deg],Time Zone[],Elevation[m]
2,8,Day of Simulation[],Month[],Day of Month[],DST Indicator[1=yes 0=no],Hour[],StartMinute[],EndMinute[],DayType
3,5,Cumulative Day of Simulation[],Month[],Day of Month[],DST Indicator[1=yes 0=no],DayType  ! When Daily Report Variables Requested
4,2,Cumulative Days of Simulation[],Month[]  ! When Monthly Report Variables Requested
5,1,Cumulative Days of Simulation[] ! When Run Period Report Variables Requested
6,1,Calendar Year of Simulation[] ! When Annual Report Variables Requested
9,1,Electricity:Facility [J] !TimeStep
1381,1,NaturalGas:Facility [J] !TimeStep
End of Data Dictionary
1,BUFFALO NIAGARA INTL AP ANN CLG .4% CONDNS DB=>MWB 1 HVAC Sizing Pass 1,  42.93, -78.73,  -5.00, 215.00
2,1, 7,21, 0, 1, 0.00,60.00,SummerDesignDay
9,16273252392.165087
1381,11483000019.200272
2,1, 7,21, 0, 2, 0.00,60.00,SummerDesignDay
9,15022627802.40127
1381,6642653744.682075
2,1, 7,21, 0, 3, 0.00,60.00,SummerDesignDay
9,15036416762.857336
1381,6457276570.74201
2,1, 7,21, 0, 4, 0.00,60.00,SummerDesignDay
9,15147143230.481085
1381,6457276570.74201
2,1, 7,21, 0, 5, 0.00,60.00,SummerDesignDay
9,15244042766.161366
1381,6457276570.74201
2,1, 7,21, 0, 6, 0.00,60.00,SummerDesignDay
9,15811198234.59297
1381,6457276570.74201
2,1, 7,21, 0, 7, 0.00,60.00,SummerDesignDay
9,18129312944.322736
1381,10415471470.885617
2,1, 7,21, 0, 8, 0.00,60.00,SummerDesignDay
9,19755606925.224473
1381,13050975776.656273
2,1, 7,21, 0, 9, 0.00,60.00,SummerDesignDay
9,19396676655.050779
1381,12719192107.109074
2,1, 7,21, 0,10, 0.00,60.00,SummerDesignDay
9,19340797424.014986
1381,12481369122.716004
2,1, 7,21, 0,11, 0.00,60.00,SummerDesignDay
9,19285106092.86515
1381,12096780618.26883
2,1, 7,21, 0,12, 0.00,60.00,SummerDesignDay
9,19392536750.97019
1381,12423754066.680466
2,1, 7,21, 0,13, 0.00,60.00,SummerDesignDay
9,19333516392.015638
1381,12376788637.705029
2,1, 7,21, 0,14, 0.00,60.00,SummerDesignDay
9,19286007227.73642
1381,12051669817.404423
2,1, 7,21, 0,15, 0.00,60.00,SummerDesignDay
9,19174668795.141508
1381,12031163769.05735
2,1, 7,21, 0,16, 0.00,60.00,SummerDesignDay
9,19086266987.058549
1381,12030700383.88015
2,1, 7,21, 0,17, 0.00,60.00,SummerDesignDay
9,18968254283.047224
1381,12030237402.862074
2,1, 7,21, 0,18, 0.00,60.00,SummerDesignDay
9,18977630798.83754
1381,12126491667.39072
2,1, 7,21, 0,19, 0.00,60.00,SummerDesignDay
9,19003337526.12126
1381,12792918718.136963
2,1, 7,21, 0,20, 0.00,60.00,SummerDesignDay
9,18947024989.995954
1381,12826828033.435379
2,1, 7,21, 0,21, 0.00,60.00,SummerDesignDay
9,19267683671.26704
1381,12757464392.453995
2,1, 7,21, 0,22, 0.00,60.00,SummerDesignDay
9,19215517864.33425
1381,12793812384.333878
2,1, 7,21, 0,23, 0.00,60.00,SummerDesignDay
9,18347802748.397855
1381,12424571317.275202
2,1, 7,21, 0,24, 0.00,60.00,SummerDesignDay
9,17897085397.540685
1381,11739042739.810984
1,BUFFALO NIAGARA INTL AP ANN CLG .4% CONDNS WB=>MDB 1 HVAC Sizing Pass 1,  42.93, -78.73,  -5.00, 215.00
2,1, 7,21, 0, 1, 0.00,60.00,SummerDesignDay
9,16317738662.446047
1381,11483000019.200272
2,1, 7,21, 0, 2, 0.00,60.00,SummerDesignDay
9,15020719385.928479
1381,6642653744.682075
2,1, 7,21, 0, 3, 0.00,60.00,SummerDesignDay
9,15005180974.880818
1381,6457276570.74201
2,1, 7,21, 0, 4, 0.00,60.00,SummerDesignDay
9,15060149919.930222
1381,6457276570.74201
2,1, 7,21, 0, 5, 0.00,60.00,SummerDesignDay
9,15122453841.644637
1381,6457276570.74201
2,1, 7,21, 0, 6, 0.00,60.00,SummerDesignDay
9,15647863946.095305
1381,6457276570.74201
2,1, 7,21, 0, 7, 0.00,60.00,SummerDesignDay
9,18069291322.18034
1381,10415471470.88562
2,1, 7,21, 0, 8, 0.00,60.00,SummerDesignDay
9,20141273503.5849
1381,13050975776.65645
2,1, 7,21, 0, 9, 0.00,60.00,SummerDesignDay
9,20367244905.17381
1381,12719192107.10891
2,1, 7,21, 0,10, 0.00,60.00,SummerDesignDay
9,20450975882.510995
1381,12481369122.715996
2,1, 7,21, 0,11, 0.00,60.00,SummerDesignDay
9,20584418492.186254
1381,12096780618.269001
2,1, 7,21, 0,12, 0.00,60.00,SummerDesignDay
9,20781925257.226617
1381,12423754066.680466
2,1, 7,21, 0,13, 0.00,60.00,SummerDesignDay
9,20238710068.13317
1381,12376788637.705029
2,1, 7,21, 0,14, 0.00,60.00,SummerDesignDay
9,20234557461.72295
1381,12051669817.404265
2,1, 7,21, 0,15, 0.00,60.00,SummerDesignDay
9,20133219691.30206
1381,12031163769.057358
2,1, 7,21, 0,16, 0.00,60.00,SummerDesignDay
9,20559522629.086545
1381,12030700383.880152
2,1, 7,21, 0,17, 0.00,60.00,SummerDesignDay
9,20350072133.870237
1381,12030237402.862076
2,1, 7,21, 0,18, 0.00,60.00,SummerDesignDay
9,20246624826.383
1381,12126491667.390862
2,1, 7,21, 0,19, 0.00,60.00,SummerDesignDay
9,20106168555.579408
1381,12792918718.136967
2,1, 7,21, 0,20, 0.00,60.00,SummerDesignDay
9,19920898243.70944
1381,12826828033.43538
2,1, 7,21, 0,21, 0.00,60.00,SummerDesignDay
9,20147182300.031587
1381,12757464392.453995
2,1, 7,21, 0,22, 0.00,60.00,SummerDesignDay
9,19741148312.004564
1381,12793812384.333878
2,1, 7,21, 0,23, 0.00,60.00,SummerDesignDay
9,18670247109.587915
1381,12424571317.275204
2,1, 7,21, 0,24, 0.00,60.00,SummerDesignDay
9,18063313026.298906
1381,11739042739.810873
1,BUFFALO NIAGARA INTL AP ANN HTG 99.6% CONDNS DB 1 HVAC Sizing Pass 1,  42.93, -78.73,  -5.00, 215.00
2,1, 1,21, 0, 1, 0.00,60.00,WinterDesignDay
9,3489050550.640847
1381,22598264653.219915
2,1, 1,21, 0, 2, 0.00,60.00,WinterDesignDay
9,3103488015.1742208
1381,16412027194.497168
2,1, 1,21, 0, 3, 0.00,60.00,WinterDesignDay
9,3103776033.2456905
1381,16316994410.036902
2,1, 1,21, 0, 4, 0.00,60.00,WinterDesignDay
9,3103677394.97376
1381,16345925447.809014
2,1, 1,21, 0, 5, 0.00,60.00,WinterDesignDay
9,3103758283.3930599
1381,16371163842.530673
2,1, 1,21, 0, 6, 0.00,60.00,WinterDesignDay
9,3133571268.9685599
1381,17026866694.00861
2,1, 1,21, 0, 7, 0.00,60.00,WinterDesignDay
9,3421840870.8988745
1381,23790599763.813348
2,1, 1,21, 0, 8, 0.00,60.00,WinterDesignDay
9,3431375793.365271
1381,23962314272.428396
2,1, 1,21, 0, 9, 0.00,60.00,WinterDesignDay
9,2762242587.1198647
1381,23890913880.403619
2,1, 1,21, 0,10, 0.00,60.00,WinterDesignDay
9,3746587891.763305
1381,25239847260.069108
2,1, 1,21, 0,11, 0.00,60.00,WinterDesignDay
9,3626983675.610683
1381,25021288036.418859
2,1, 1,21, 0,12, 0.00,60.00,WinterDesignDay
9,3723374841.34108
1381,25224416907.285017
2,1, 1,21, 0,13, 0.00,60.00,WinterDesignDay
9,3709056481.03816
1381,25203496629.319566
2,1, 1,21, 0,14, 0.00,60.00,WinterDesignDay
9,3621597746.6572086
1381,24942871766.29022
2,1, 1,21, 0,15, 0.00,60.00,WinterDesignDay
9,3522426855.3568937
1381,24673390464.559885
2,1, 1,21, 0,16, 0.00,60.00,WinterDesignDay
9,3517916657.7020456
1381,24662635760.382856
2,1, 1,21, 0,17, 0.00,60.00,WinterDesignDay
9,3424032849.78828
1381,24633250359.58387
2,1, 1,21, 0,18, 0.00,60.00,WinterDesignDay
9,4183038308.400681
1381,24640974630.39277
2,1, 1,21, 0,19, 0.00,60.00,WinterDesignDay
9,4483677845.026568
1381,25114869598.0034
2,1, 1,21, 0,20, 0.00,60.00,WinterDesignDay
9,4510048642.287743
1381,25103177059.950479
2,1, 1,21, 0,21, 0.00,60.00,WinterDesignDay
9,4387848954.359136
1381,25099906597.94831
2,1, 1,21, 0,22, 0.00,60.00,WinterDesignDay
9,4493875350.72135
1381,25089841807.823144
2,1, 1,21, 0,23, 0.00,60.00,WinterDesignDay
9,4112943822.2248075
1381,23238194526.311719
2,1, 1,21, 0,24, 0.00,60.00,WinterDesignDay
9,3922174693.744178
1381,23028677695.351064
1,BUFFALO NIAGARA INTL AP ANN CLG .4% CONDNS DB=>MWB 1,  42.93, -78.73,  -5.00, 215.00
2,1, 7,21, 0, 1, 0.00,60.00,SummerDesignDay
9,16330518635.851214
1381,11483000019.200272
2,1, 7,21, 0, 2, 0.00,60.00,SummerDesignDay
9,15083388829.167872
1381,6642653744.682075
2,1, 7,21, 0, 3, 0.00,60.00,SummerDesignDay
9,15097170696.719508
1381,6457276570.74201
2,1, 7,21, 0, 4, 0.00,60.00,SummerDesignDay
9,15207347745.075873
1381,6457276570.74201
2,1, 7,21, 0, 5, 0.00,60.00,SummerDesignDay
9,15303723818.469038
1381,6457276570.74201
2,1, 7,21, 0, 6, 0.00,60.00,SummerDesignDay
9,15866895489.281573
1381,6457276570.74201
2,1, 7,21, 0, 7, 0.00,60.00,SummerDesignDay
9,18151838214.23518
1381,10415471470.88562
2,1, 7,21, 0, 8, 0.00,60.00,SummerDesignDay
9,19763212815.835554
1381,13050975776.65659
2,1, 7,21, 0, 9, 0.00,60.00,SummerDesignDay
9,19414669251.462919
1381,12719192107.108784
2,1, 7,21, 0,10, 0.00,60.00,SummerDesignDay
9,19359039768.414865
1381,12481369122.716
2,1, 7,21, 0,11, 0.00,60.00,SummerDesignDay
9,19304848383.540765
1381,12096780618.269135
2,1, 7,21, 0,12, 0.00,60.00,SummerDesignDay
9,19413914596.004243
1381,12423754066.680466
2,1, 7,21, 0,13, 0.00,60.00,SummerDesignDay
9,19355869872.155038
1381,12376788637.705025
2,1, 7,21, 0,14, 0.00,60.00,SummerDesignDay
9,19307845258.66223
1381,12051669817.404116
2,1, 7,21, 0,15, 0.00,60.00,SummerDesignDay
9,19196499013.75746
1381,12031163769.057354
2,1, 7,21, 0,16, 0.00,60.00,SummerDesignDay
9,19108831840.01866
1381,12030700383.880158
2,1, 7,21, 0,17, 0.00,60.00,SummerDesignDay
9,18992339257.76191
1381,12030237402.86208
2,1, 7,21, 0,18, 0.00,60.00,SummerDesignDay
9,19003682785.081346
1381,12126491667.390267
2,1, 7,21, 0,19, 0.00,60.00,SummerDesignDay
9,19032980565.06643
1381,12792918718.061856
2,1, 7,21, 0,20, 0.00,60.00,SummerDesignDay
9,18980637373.58631
1381,12826828033.364697
2,1, 7,21, 0,21, 0.00,60.00,SummerDesignDay
9,19303435081.13431
1381,12757464392.3735
2,1, 7,21, 0,22, 0.00,60.00,SummerDesignDay
9,19252799180.446557
1381,12793812384.264615
2,1, 7,21, 0,23, 0.00,60.00,SummerDesignDay
9,18394388579.844366
1381,12424571317.27552
2,1, 7,21, 0,24, 0.00,60.00,SummerDesignDay
9,17944250192.94757
1381,11739042776.573834
1,BUFFALO NIAGARA INTL AP ANN CLG .4% CONDNS WB=>MDB 1,  42.93, -78.73,  -5.00, 215.00
2,1, 7,21, 0, 1, 0.00,60.00,SummerDesignDay
9,16374447376.402882
1381,11483000019.200272
2,1, 7,21, 0, 2, 0.00,60.00,SummerDesignDay
9,15081428414.04211
1381,6642653744.682075
2,1, 7,21, 0, 3, 0.00,60.00,SummerDesignDay
9,15066208679.463809
1381,6457276570.74201
2,1, 7,21, 0, 4, 0.00,60.00,SummerDesignDay
9,15121011744.07771
1381,6457276570.74201
2,1, 7,21, 0, 5, 0.00,60.00,SummerDesignDay
9,15183036989.966229
1381,6457276570.74201
2,1, 7,21, 0, 6, 0.00,60.00,SummerDesignDay
9,15701778241.312249
1381,6457276570.74201
2,1, 7,21, 0, 7, 0.00,60.00,SummerDesignDay
9,18091944320.018556
1381,11408048706.521027
2,1, 7,21, 0, 8, 0.00,60.00,SummerDesignDay
9,20141268788.38576
1381,12827009631.425816
2,1, 7,21, 0, 9, 0.00,60.00,SummerDesignDay
9,20377793301.858976
1381,12792976614.210246
2,1, 7,21, 0,10, 0.00,60.00,SummerDesignDay
9,20453048182.95836
1381,12424285362.20972
2,1, 7,21, 0,11, 0.00,60.00,SummerDesignDay
9,20579649791.119604
1381,12377340691.272862
2,1, 7,21, 0,12, 0.00,60.00,SummerDesignDay
9,20777281078.15256
1381,12424915660.378758
2,1, 7,21, 0,13, 0.00,60.00,SummerDesignDay
9,20255888969.02146
1381,12288982380.063294
2,1, 7,21, 0,14, 0.00,60.00,SummerDesignDay
9,20253141474.763425
1381,12107466215.80533
2,1, 7,21, 0,15, 0.00,60.00,SummerDesignDay
9,20150121295.79495
1381,11955089731.75296
2,1, 7,21, 0,16, 0.00,60.00,SummerDesignDay
9,20553029330.587587
1381,11954875812.160967
2,1, 7,21, 0,17, 0.00,60.00,SummerDesignDay
9,20349092043.47639
1381,11954658327.114914
2,1, 7,21, 0,18, 0.00,60.00,SummerDesignDay
9,20252247615.55029
1381,12377320454.7387
2,1, 7,21, 0,19, 0.00,60.00,SummerDesignDay
9,20120400555.88276
1381,12793776237.440178
2,1, 7,21, 0,20, 0.00,60.00,SummerDesignDay
9,19945151996.20833
1381,12827630314.90295
2,1, 7,21, 0,21, 0.00,60.00,SummerDesignDay
9,20174345125.663957
1381,12469202035.655652
2,1, 7,21, 0,22, 0.00,60.00,SummerDesignDay
9,19776258013.315446
1381,12792849325.860604
2,1, 7,21, 0,23, 0.00,60.00,SummerDesignDay
9,18714648274.522207
1381,12424550297.269452
2,1, 7,21, 0,24, 0.00,60.00,SummerDesignDay
9,18109156863.349729
1381,11890420820.995285
1,BUFFALO NIAGARA INTL AP ANN HTG 99.6% CONDNS DB 1,  42.93, -78.73,  -5.00, 215.00
2,1, 1,21, 0, 1, 0.00,60.00,WinterDesignDay
9,3489046865.177429
1381,22598264653.219915
2,1, 1,21, 0, 2, 0.00,60.00,WinterDesignDay
9,3103488011.3991329
1381,16412027194.497168
2,1, 1,21, 0, 3, 0.00,60.00,WinterDesignDay
9,3103776025.7596175
1381,16316994410.036902
2,1, 1,21, 0, 4, 0.00,60.00,WinterDesignDay
9,3103677391.1321227
1381,16345925447.809014
2,1, 1,21, 0, 5, 0.00,60.00,WinterDesignDay
9,3103758279.584246
1381,16371163842.530673
2,1, 1,21, 0, 6, 0.00,60.00,WinterDesignDay
9,3133571265.2460005
1381,17026866694.00861
2,1, 1,21, 0, 7, 0.00,60.00,WinterDesignDay
9,3421840867.181642
1381,23790599763.813348
2,1, 1,21, 0, 8, 0.00,60.00,WinterDesignDay
9,3431375785.9328687
1381,23962314272.428396
2,1, 1,21, 0, 9, 0.00,60.00,WinterDesignDay
9,2762242583.390412
1381,23890913880.403619
2,1, 1,21, 0,10, 0.00,60.00,WinterDesignDay
9,3746330828.0932557
1381,25239847260.069108
2,1, 1,21, 0,11, 0.00,60.00,WinterDesignDay
9,3627225360.0140745
1381,25021288036.418859
2,1, 1,21, 0,12, 0.00,60.00,WinterDesignDay
9,3723387559.9911906
1381,25224416907.285017
2,1, 1,21, 0,13, 0.00,60.00,WinterDesignDay
9,3709263790.098844
1381,25203496629.319566
2,1, 1,21, 0,14, 0.00,60.00,WinterDesignDay
9,3621407527.345336
1381,24942871766.29022
2,1, 1,21, 0,15, 0.00,60.00,WinterDesignDay
9,3522343467.496582
1381,24673390464.55972
2,1, 1,21, 0,16, 0.00,60.00,WinterDesignDay
9,3517939911.814446
1381,24662635760.343805
2,1, 1,21, 0,17, 0.00,60.00,WinterDesignDay
9,3424001474.141318
1381,24633250359.53869
2,1, 1,21, 0,18, 0.00,60.00,WinterDesignDay
9,4182989081.4259879
1381,24640974630.3587
2,1, 1,21, 0,19, 0.00,60.00,WinterDesignDay
9,4483646427.391283
1381,25114869598.0034
2,1, 1,21, 0,20, 0.00,60.00,WinterDesignDay
9,4509457168.94387
1381,25103177059.950479
2,1, 1,21, 0,21, 0.00,60.00,WinterDesignDay
9,4388279980.4670319
1381,25099906597.94831
2,1, 1,21, 0,22, 0.00,60.00,WinterDesignDay
9,4493909083.109583
1381,25089841807.823144
2,1, 1,21, 0,23, 0.00,60.00,WinterDesignDay
9,4113303654.4176366
1381,23238194528.09007
2,1, 1,21, 0,24, 0.00,60.00,WinterDesignDay
9,3921864257.1320044
1381,23028677693.474119
End of Data
 Number of Records Written=         288
