Program Version,EnergyPlus, Version 9.5.0-de239b2e5f, YMD=2021.08.10 22:26
1,5,Environment Title[],Latitude[deg],Longitude[deg],Time Zone[],Elevation[m]
2,8,Day of Simulation[],Month[],Day of Month[],DST Indicator[1=yes 0=no],Hour[],StartMinute[],EndMinute[],DayType
3,5,Cumulative Day of Simulation[],Month[],Day of Month[],DST Indicator[1=yes 0=no],DayType  ! When Daily Report Variables Requested
4,2,Cumulative Days of Simulation[],Month[]  ! When Monthly Report Variables Requested
5,1,Cumulative Days of Simulation[] ! When Run Period Report Variables Requested
6,1,Calendar Year of Simulation[] ! When Annual Report Variables Requested
9,1,Electricity:Facility [J] !TimeStep
1381,1,NaturalGas:Facility [J] !TimeStep
End of Data Dictionary
1,BUFFALO NIAGARA INTL AP ANN CLG .4% CONDNS DB=>MWB 1 HVAC Sizing Pass 1,  42.93, -78.73,  -5.00, 215.00
2,1, 7,21, 0, 1, 0.00,60.00,SummerDesignDay
9,16273252300.043026
1381,11483000019.200272
2,1, 7,21, 0, 2, 0.00,60.00,SummerDesignDay
9,15022627689.558089
1381,6642653744.682075
2,1, 7,21, 0, 3, 0.00,60.00,SummerDesignDay
9,15036416666.288092
1381,6457276570.74201
2,1, 7,21, 0, 4, 0.00,60.00,SummerDesignDay
9,15147143127.708655
1381,6457276570.74201
2,1, 7,21, 0, 5, 0.00,60.00,SummerDesignDay
9,15244042694.987305
1381,6457276570.74201
2,1, 7,21, 0, 6, 0.00,60.00,SummerDesignDay
9,15811197954.31546
1381,6457276570.74201
2,1, 7,21, 0, 7, 0.00,60.00,SummerDesignDay
9,18129312516.813096
1381,10415471470.885617
2,1, 7,21, 0, 8, 0.00,60.00,SummerDesignDay
9,19755606714.60695
1381,13050975776.656273
2,1, 7,21, 0, 9, 0.00,60.00,SummerDesignDay
9,19396676442.080354
1381,12719192107.109074
2,1, 7,21, 0,10, 0.00,60.00,SummerDesignDay
9,19340797228.868158
1381,12481369122.716004
2,1, 7,21, 0,11, 0.00,60.00,SummerDesignDay
9,19285105939.754327
1381,12096780618.26883
2,1, 7,21, 0,12, 0.00,60.00,SummerDesignDay
9,19392536657.39388
1381,12423754066.680466
2,1, 7,21, 0,13, 0.00,60.00,SummerDesignDay
9,19333516376.859518
1381,12376788637.705029
2,1, 7,21, 0,14, 0.00,60.00,SummerDesignDay
9,19286007132.89812
1381,12051669817.404423
2,1, 7,21, 0,15, 0.00,60.00,SummerDesignDay
9,19174668725.31503
1381,12031163769.05735
2,1, 7,21, 0,16, 0.00,60.00,SummerDesignDay
9,19086267072.06874
1381,12030700383.88015
2,1, 7,21, 0,17, 0.00,60.00,SummerDesignDay
9,18968253603.63868
1381,12030237402.862074
2,1, 7,21, 0,18, 0.00,60.00,SummerDesignDay
9,18977630088.23789
1381,12126491667.39072
2,1, 7,21, 0,19, 0.00,60.00,SummerDesignDay
9,19003337480.10682
1381,12792918718.136963
2,1, 7,21, 0,20, 0.00,60.00,SummerDesignDay
9,18947020397.294118
1381,12826828033.435379
2,1, 7,21, 0,21, 0.00,60.00,SummerDesignDay
9,19267680562.87161
1381,12757464392.453995
2,1, 7,21, 0,22, 0.00,60.00,SummerDesignDay
9,19215516689.06981
1381,12793812384.333878
2,1, 7,21, 0,23, 0.00,60.00,SummerDesignDay
9,18347802172.33934
1381,12424571317.275202
2,1, 7,21, 0,24, 0.00,60.00,SummerDesignDay
9,17897084908.072675
1381,11739042739.810984
1,BUFFALO NIAGARA INTL AP ANN CLG .4% CONDNS WB=>MDB 1 HVAC Sizing Pass 1,  42.93, -78.73,  -5.00, 215.00
2,1, 7,21, 0, 1, 0.00,60.00,SummerDesignDay
9,16317738545.66041
1381,11483000019.200272
2,1, 7,21, 0, 2, 0.00,60.00,SummerDesignDay
9,15020719285.572302
1381,6642653744.682075
2,1, 7,21, 0, 3, 0.00,60.00,SummerDesignDay
9,15005180877.055159
1381,6457276570.74201
2,1, 7,21, 0, 4, 0.00,60.00,SummerDesignDay
9,15060149804.991669
1381,6457276570.74201
2,1, 7,21, 0, 5, 0.00,60.00,SummerDesignDay
9,15122453736.15321
1381,6457276570.74201
2,1, 7,21, 0, 6, 0.00,60.00,SummerDesignDay
9,15647863738.287404
1381,6457276570.74201
2,1, 7,21, 0, 7, 0.00,60.00,SummerDesignDay
9,18069289386.19269
1381,10415471470.88562
2,1, 7,21, 0, 8, 0.00,60.00,SummerDesignDay
9,20141273284.08241
1381,13050975776.65645
2,1, 7,21, 0, 9, 0.00,60.00,SummerDesignDay
9,20367244079.560834
1381,12719192107.10891
2,1, 7,21, 0,10, 0.00,60.00,SummerDesignDay
9,20450976108.855554
1381,12481369122.715996
2,1, 7,21, 0,11, 0.00,60.00,SummerDesignDay
9,20584419239.207548
1381,12096780618.269001
2,1, 7,21, 0,12, 0.00,60.00,SummerDesignDay
9,20781924551.00185
1381,12423754066.680466
2,1, 7,21, 0,13, 0.00,60.00,SummerDesignDay
9,20238710010.1601
1381,12376788637.705029
2,1, 7,21, 0,14, 0.00,60.00,SummerDesignDay
9,20234558497.715719
1381,12051669817.404265
2,1, 7,21, 0,15, 0.00,60.00,SummerDesignDay
9,20133219232.69039
1381,12031163769.057358
2,1, 7,21, 0,16, 0.00,60.00,SummerDesignDay
9,20559523463.75291
1381,12030700383.880152
2,1, 7,21, 0,17, 0.00,60.00,SummerDesignDay
9,20350071521.472284
1381,12030237402.862076
2,1, 7,21, 0,18, 0.00,60.00,SummerDesignDay
9,20246625086.848386
1381,12126491667.390862
2,1, 7,21, 0,19, 0.00,60.00,SummerDesignDay
9,20106168592.741987
1381,12792918718.136967
2,1, 7,21, 0,20, 0.00,60.00,SummerDesignDay
9,19920893832.512197
1381,12826828033.43538
2,1, 7,21, 0,21, 0.00,60.00,SummerDesignDay
9,20147178175.59736
1381,12757464392.453995
2,1, 7,21, 0,22, 0.00,60.00,SummerDesignDay
9,19741145940.900026
1381,12793812384.333878
2,1, 7,21, 0,23, 0.00,60.00,SummerDesignDay
9,18670246384.62341
1381,12424571317.275204
2,1, 7,21, 0,24, 0.00,60.00,SummerDesignDay
9,18063312512.2783
1381,11739042739.810873
1,BUFFALO NIAGARA INTL AP ANN HTG 99.6% CONDNS DB 1 HVAC Sizing Pass 1,  42.93, -78.73,  -5.00, 215.00
2,1, 1,21, 0, 1, 0.00,60.00,WinterDesignDay
9,3489050539.6995675
1381,22598263926.64575
2,1, 1,21, 0, 2, 0.00,60.00,WinterDesignDay
9,3103488004.2329409
1381,16412026467.920203
2,1, 1,21, 0, 3, 0.00,60.00,WinterDesignDay
9,3103776022.3044106
1381,16316993683.462515
2,1, 1,21, 0, 4, 0.00,60.00,WinterDesignDay
9,3103677384.03248
1381,16345924721.236884
2,1, 1,21, 0, 5, 0.00,60.00,WinterDesignDay
9,3103758272.45178
1381,16371163115.959759
2,1, 1,21, 0, 6, 0.00,60.00,WinterDesignDay
9,3133571258.0272819
1381,17026865967.463232
2,1, 1,21, 0, 7, 0.00,60.00,WinterDesignDay
9,3421840859.984536
1381,23790599037.322664
2,1, 1,21, 0, 8, 0.00,60.00,WinterDesignDay
9,3431375782.4006588
1381,23962313546.001428
2,1, 1,21, 0, 9, 0.00,60.00,WinterDesignDay
9,2762242576.1783168
1381,23890913153.79023
2,1, 1,21, 0,10, 0.00,60.00,WinterDesignDay
9,3746587880.8225138
1381,25239846533.668893
2,1, 1,21, 0,11, 0.00,60.00,WinterDesignDay
9,3626983664.689091
1381,25021287309.78785
2,1, 1,21, 0,12, 0.00,60.00,WinterDesignDay
9,3723374830.3792564
1381,25224416180.67021
2,1, 1,21, 0,13, 0.00,60.00,WinterDesignDay
9,3709056470.097641
1381,25203495902.690305
2,1, 1,21, 0,14, 0.00,60.00,WinterDesignDay
9,3621597735.7395226
1381,24942871039.685029
2,1, 1,21, 0,15, 0.00,60.00,WinterDesignDay
9,3522426844.41977
1381,24673389737.93517
2,1, 1,21, 0,16, 0.00,60.00,WinterDesignDay
9,3517916646.589095
1381,24662635033.76059
2,1, 1,21, 0,17, 0.00,60.00,WinterDesignDay
9,3424032838.8652799
1381,24633249632.981599
2,1, 1,21, 0,18, 0.00,60.00,WinterDesignDay
9,4183038297.3701078
1381,24640973903.77233
2,1, 1,21, 0,19, 0.00,60.00,WinterDesignDay
9,4483677834.126248
1381,25114868871.404195
2,1, 1,21, 0,20, 0.00,60.00,WinterDesignDay
9,4510048631.410644
1381,25103176333.333456
2,1, 1,21, 0,21, 0.00,60.00,WinterDesignDay
9,4387848943.233548
1381,25099905871.330965
2,1, 1,21, 0,22, 0.00,60.00,WinterDesignDay
9,4493875339.919028
1381,25089841081.225149
2,1, 1,21, 0,23, 0.00,60.00,WinterDesignDay
9,4112943811.057997
1381,23238193810.312028
2,1, 1,21, 0,24, 0.00,60.00,WinterDesignDay
9,3922174682.7727906
1381,23028676968.86391
1,BUFFALO NIAGARA INTL AP ANN CLG .4% CONDNS DB=>MWB 1,  42.93, -78.73,  -5.00, 215.00
2,1, 7,21, 0, 1, 0.00,60.00,SummerDesignDay
9,16330254088.2813
1381,11483000019.200272
2,1, 7,21, 0, 2, 0.00,60.00,SummerDesignDay
9,15083275751.350256
1381,6642653744.682075
2,1, 7,21, 0, 3, 0.00,60.00,SummerDesignDay
9,15097170611.25934
1381,6457276570.74201
2,1, 7,21, 0, 4, 0.00,60.00,SummerDesignDay
9,15207347537.96411
1381,6457276570.74201
2,1, 7,21, 0, 5, 0.00,60.00,SummerDesignDay
9,15303723727.199778
1381,6457276570.74201
2,1, 7,21, 0, 6, 0.00,60.00,SummerDesignDay
9,15866895226.11096
1381,6457276570.74201
2,1, 7,21, 0, 7, 0.00,60.00,SummerDesignDay
9,18151839677.864648
1381,11408048706.521302
2,1, 7,21, 0, 8, 0.00,60.00,SummerDesignDay
9,19763218518.473089
1381,12827009631.42542
2,1, 7,21, 0, 9, 0.00,60.00,SummerDesignDay
9,19416436901.417699
1381,12792976614.210423
2,1, 7,21, 0,10, 0.00,60.00,SummerDesignDay
9,19358955577.040437
1381,12424285362.209939
2,1, 7,21, 0,11, 0.00,60.00,SummerDesignDay
9,19304214125.857774
1381,12377340691.273087
2,1, 7,21, 0,12, 0.00,60.00,SummerDesignDay
9,19414254559.28017
1381,12424915660.37899
2,1, 7,21, 0,13, 0.00,60.00,SummerDesignDay
9,19354161395.356756
1381,12288982377.902237
2,1, 7,21, 0,14, 0.00,60.00,SummerDesignDay
9,19309532347.986177
1381,12107466218.01401
2,1, 7,21, 0,15, 0.00,60.00,SummerDesignDay
9,19196795894.23189
1381,11955089731.75867
2,1, 7,21, 0,16, 0.00,60.00,SummerDesignDay
9,19108835997.986906
1381,11954875812.16677
2,1, 7,21, 0,17, 0.00,60.00,SummerDesignDay
9,18992155203.582155
1381,11954658327.120842
2,1, 7,21, 0,18, 0.00,60.00,SummerDesignDay
9,19002895137.786924
1381,12377320454.74362
2,1, 7,21, 0,19, 0.00,60.00,SummerDesignDay
9,19030987101.419713
1381,12793776237.443787
2,1, 7,21, 0,20, 0.00,60.00,SummerDesignDay
9,18980632337.707185
1381,12827630314.906327
2,1, 7,21, 0,21, 0.00,60.00,SummerDesignDay
9,19302049051.35344
1381,12469202035.66026
2,1, 7,21, 0,22, 0.00,60.00,SummerDesignDay
9,19254517064.939615
1381,12792849325.864766
2,1, 7,21, 0,23, 0.00,60.00,SummerDesignDay
9,18394504206.80971
1381,12424550297.266045
2,1, 7,21, 0,24, 0.00,60.00,SummerDesignDay
9,17944199097.97673
1381,11890420820.9952
1,BUFFALO NIAGARA INTL AP ANN CLG .4% CONDNS WB=>MDB 1,  42.93, -78.73,  -5.00, 215.00
2,1, 7,21, 0, 1, 0.00,60.00,SummerDesignDay
9,16374711729.36237
1381,11483000019.200272
2,1, 7,21, 0, 2, 0.00,60.00,SummerDesignDay
9,15081541294.13287
1381,6642653744.682075
2,1, 7,21, 0, 3, 0.00,60.00,SummerDesignDay
9,15066208572.97657
1381,6457276570.74201
2,1, 7,21, 0, 4, 0.00,60.00,SummerDesignDay
9,15121011645.453116
1381,6457276570.74201
2,1, 7,21, 0, 5, 0.00,60.00,SummerDesignDay
9,15183036856.94802
1381,6457276570.74201
2,1, 7,21, 0, 6, 0.00,60.00,SummerDesignDay
9,15701777977.549695
1381,6457276570.74201
2,1, 7,21, 0, 7, 0.00,60.00,SummerDesignDay
9,18091943998.512834
1381,10415471456.233309
2,1, 7,21, 0, 8, 0.00,60.00,SummerDesignDay
9,20141262680.62511
1381,13050975788.175107
2,1, 7,21, 0, 9, 0.00,60.00,SummerDesignDay
9,20376026147.29977
1381,12719192096.966397
2,1, 7,21, 0,10, 0.00,60.00,SummerDesignDay
9,20453132270.463685
1381,12481369122.754628
2,1, 7,21, 0,11, 0.00,60.00,SummerDesignDay
9,20580283499.08872
1381,12096780629.04103
2,1, 7,21, 0,12, 0.00,60.00,SummerDesignDay
9,20776941598.7425
1381,12423754066.702698
2,1, 7,21, 0,13, 0.00,60.00,SummerDesignDay
9,20257597245.237318
1381,12376788637.728253
2,1, 7,21, 0,14, 0.00,60.00,SummerDesignDay
9,20251453778.102235
1381,12051669807.217862
2,1, 7,21, 0,15, 0.00,60.00,SummerDesignDay
9,20149825638.57335
1381,12031163769.238942
2,1, 7,21, 0,16, 0.00,60.00,SummerDesignDay
9,20553024809.521795
1381,12030700384.059466
2,1, 7,21, 0,17, 0.00,60.00,SummerDesignDay
9,20349277619.520357
1381,12030237403.039067
2,1, 7,21, 0,18, 0.00,60.00,SummerDesignDay
9,20253025307.401945
1381,12126491676.55722
2,1, 7,21, 0,19, 0.00,60.00,SummerDesignDay
9,20122397354.303857
1381,12792918718.076558
2,1, 7,21, 0,20, 0.00,60.00,SummerDesignDay
9,19945147204.49195
1381,12826828033.378533
2,1, 7,21, 0,21, 0.00,60.00,SummerDesignDay
9,20175723933.137079
1381,12757464392.389258
2,1, 7,21, 0,22, 0.00,60.00,SummerDesignDay
9,19774536524.241415
1381,12793812384.278174
2,1, 7,21, 0,23, 0.00,60.00,SummerDesignDay
9,18714531334.77864
1381,12424571317.276539
2,1, 7,21, 0,24, 0.00,60.00,SummerDesignDay
9,18109206965.691057
1381,11739042779.378888
1,BUFFALO NIAGARA INTL AP ANN HTG 99.6% CONDNS DB 1,  42.93, -78.73,  -5.00, 215.00
2,1, 1,21, 0, 1, 0.00,60.00,WinterDesignDay
9,3489046854.236133
1381,22598263926.64575
2,1, 1,21, 0, 2, 0.00,60.00,WinterDesignDay
9,3103488000.457853
1381,16412026467.920203
2,1, 1,21, 0, 3, 0.00,60.00,WinterDesignDay
9,3103776014.817545
1381,16316993683.462515
2,1, 1,21, 0, 4, 0.00,60.00,WinterDesignDay
9,3103677380.1899788
1381,16345924721.236884
2,1, 1,21, 0, 5, 0.00,60.00,WinterDesignDay
9,3103758268.6429679
1381,16371163115.959759
2,1, 1,21, 0, 6, 0.00,60.00,WinterDesignDay
9,3133571254.3047239
1381,17026865967.463232
2,1, 1,21, 0, 7, 0.00,60.00,WinterDesignDay
9,3421840856.267311
1381,23790599037.322664
2,1, 1,21, 0, 8, 0.00,60.00,WinterDesignDay
9,3431375774.968006
1381,23962313546.001428
2,1, 1,21, 0, 9, 0.00,60.00,WinterDesignDay
9,2762242572.4496338
1381,23890913153.79023
2,1, 1,21, 0,10, 0.00,60.00,WinterDesignDay
9,3746330817.1524579
1381,25239846533.668893
2,1, 1,21, 0,11, 0.00,60.00,WinterDesignDay
9,3627225349.0921556
1381,25021287309.78785
2,1, 1,21, 0,12, 0.00,60.00,WinterDesignDay
9,3723387549.029178
1381,25224416180.67021
2,1, 1,21, 0,13, 0.00,60.00,WinterDesignDay
9,3709263779.1584675
1381,25203495902.690305
2,1, 1,21, 0,14, 0.00,60.00,WinterDesignDay
9,3621407510.949873
1381,24942871039.685029
2,1, 1,21, 0,15, 0.00,60.00,WinterDesignDay
9,3522343443.0240409
1381,24673389737.935007
2,1, 1,21, 0,16, 0.00,60.00,WinterDesignDay
9,3517939867.3614828
1381,24662635033.721544
2,1, 1,21, 0,17, 0.00,60.00,WinterDesignDay
9,3424001345.208153
1381,24633249632.936418
2,1, 1,21, 0,18, 0.00,60.00,WinterDesignDay
9,4182988743.5927464
1381,24640973903.738264
2,1, 1,21, 0,19, 0.00,60.00,WinterDesignDay
9,4483646238.5066809
1381,25114868871.404195
2,1, 1,21, 0,20, 0.00,60.00,WinterDesignDay
9,4509457126.162734
1381,25103176333.333456
2,1, 1,21, 0,21, 0.00,60.00,WinterDesignDay
9,4388280008.392714
1381,25099905871.330965
2,1, 1,21, 0,22, 0.00,60.00,WinterDesignDay
9,4493909080.840186
1381,25089841081.225149
2,1, 1,21, 0,23, 0.00,60.00,WinterDesignDay
9,4113303629.874294
1381,23238193811.847955
2,1, 1,21, 0,24, 0.00,60.00,WinterDesignDay
9,3921864251.6765348
1381,23028676967.242818
End of Data
 Number of Records Written=         288
