Program Version,EnergyPlus, Version 9.5.0-de239b2e5f, YMD=2021.08.10 22:11
1,5,Environment Title[],Latitude[deg],Longitude[deg],Time Zone[],Elevation[m]
2,8,Day of Simulation[],Month[],Day of Month[],DST Indicator[1=yes 0=no],Hour[],StartMinute[],EndMinute[],DayType
3,5,Cumulative Day of Simulation[],Month[],Day of Month[],DST Indicator[1=yes 0=no],DayType  ! When Daily Report Variables Requested
4,2,Cumulative Days of Simulation[],Month[]  ! When Monthly Report Variables Requested
5,1,Cumulative Days of Simulation[] ! When Run Period Report Variables Requested
6,1,Calendar Year of Simulation[] ! When Annual Report Variables Requested
9,1,Electricity:Facility [J] !TimeStep
1381,1,NaturalGas:Facility [J] !TimeStep
End of Data Dictionary
1,BUFFALO NIAGARA INTL AP ANN CLG .4% CONDNS DB=>MWB 1 HVAC Sizing Pass 1,  42.93, -78.73,  -5.00, 215.00
2,1, 7,21, 0, 1, 0.00,60.00,SummerDesignDay
9,16273252299.378375
1381,11483000019.200272
2,1, 7,21, 0, 2, 0.00,60.00,SummerDesignDay
9,15022627712.702172
1381,6642653744.682075
2,1, 7,21, 0, 3, 0.00,60.00,SummerDesignDay
9,15036416658.859196
1381,6457276570.74201
2,1, 7,21, 0, 4, 0.00,60.00,SummerDesignDay
9,15147143115.720295
1381,6457276570.74201
2,1, 7,21, 0, 5, 0.00,60.00,SummerDesignDay
9,15244042716.98255
1381,6457276570.74201
2,1, 7,21, 0, 6, 0.00,60.00,SummerDesignDay
9,15811197954.791342
1381,6457276570.74201
2,1, 7,21, 0, 7, 0.00,60.00,SummerDesignDay
9,18129312487.517004
1381,10415471470.885617
2,1, 7,21, 0, 8, 0.00,60.00,SummerDesignDay
9,19755606684.29634
1381,13050975776.656273
2,1, 7,21, 0, 9, 0.00,60.00,SummerDesignDay
9,19396676398.16577
1381,12719192107.109074
2,1, 7,21, 0,10, 0.00,60.00,SummerDesignDay
9,19340797246.533246
1381,12481369122.716004
2,1, 7,21, 0,11, 0.00,60.00,SummerDesignDay
9,19285105963.54933
1381,12096780618.26883
2,1, 7,21, 0,12, 0.00,60.00,SummerDesignDay
9,19392536635.869897
1381,12423754066.680466
2,1, 7,21, 0,13, 0.00,60.00,SummerDesignDay
9,19333516356.189989
1381,12376788637.705029
2,1, 7,21, 0,14, 0.00,60.00,SummerDesignDay
9,19286007035.240419
1381,12051669817.404423
2,1, 7,21, 0,15, 0.00,60.00,SummerDesignDay
9,19174668786.631296
1381,12031163769.05735
2,1, 7,21, 0,16, 0.00,60.00,SummerDesignDay
9,19086266973.497064
1381,12030700383.88015
2,1, 7,21, 0,17, 0.00,60.00,SummerDesignDay
9,18968254393.041994
1381,12030237402.862074
2,1, 7,21, 0,18, 0.00,60.00,SummerDesignDay
9,18977630872.5691
1381,12126491667.39072
2,1, 7,21, 0,19, 0.00,60.00,SummerDesignDay
9,19003337482.46822
1381,12792918718.136963
2,1, 7,21, 0,20, 0.00,60.00,SummerDesignDay
9,18947020457.067304
1381,12826828033.435379
2,1, 7,21, 0,21, 0.00,60.00,SummerDesignDay
9,19267680582.18746
1381,12757464392.453995
2,1, 7,21, 0,22, 0.00,60.00,SummerDesignDay
9,19215516734.120538
1381,12793812384.333878
2,1, 7,21, 0,23, 0.00,60.00,SummerDesignDay
9,18347802264.38529
1381,12424571317.275202
2,1, 7,21, 0,24, 0.00,60.00,SummerDesignDay
9,17897084909.942647
1381,11739042739.810984
1,BUFFALO NIAGARA INTL AP ANN CLG .4% CONDNS WB=>MDB 1 HVAC Sizing Pass 1,  42.93, -78.73,  -5.00, 215.00
2,1, 7,21, 0, 1, 0.00,60.00,SummerDesignDay
9,16317530842.451601
1381,11483000019.200272
2,1, 7,21, 0, 2, 0.00,60.00,SummerDesignDay
9,15020584614.701863
1381,6642653744.682075
2,1, 7,21, 0, 3, 0.00,60.00,SummerDesignDay
9,15005180911.364335
1381,6457276570.74201
2,1, 7,21, 0, 4, 0.00,60.00,SummerDesignDay
9,15060149738.098322
1381,6457276570.74201
2,1, 7,21, 0, 5, 0.00,60.00,SummerDesignDay
9,15122453765.50579
1381,6457276570.74201
2,1, 7,21, 0, 6, 0.00,60.00,SummerDesignDay
9,15648049143.186003
1381,6457276570.74201
2,1, 7,21, 0, 7, 0.00,60.00,SummerDesignDay
9,18069103965.593358
1381,10415471470.885617
2,1, 7,21, 0, 8, 0.00,60.00,SummerDesignDay
9,20141294742.240095
1381,13050975776.656474
2,1, 7,21, 0, 9, 0.00,60.00,SummerDesignDay
9,20367244152.83604
1381,12719192108.013344
2,1, 7,21, 0,10, 0.00,60.00,SummerDesignDay
9,20450975929.16941
1381,12481369122.712559
2,1, 7,21, 0,11, 0.00,60.00,SummerDesignDay
9,20584419097.407915
1381,12096780617.309529
2,1, 7,21, 0,12, 0.00,60.00,SummerDesignDay
9,20781924620.83852
1381,12423754066.678517
2,1, 7,21, 0,13, 0.00,60.00,SummerDesignDay
9,20238709931.873888
1381,12376788637.702988
2,1, 7,21, 0,14, 0.00,60.00,SummerDesignDay
9,20234558364.170835
1381,12051669818.298151
2,1, 7,21, 0,15, 0.00,60.00,SummerDesignDay
9,20133219083.303876
1381,12031163769.041424
2,1, 7,21, 0,16, 0.00,60.00,SummerDesignDay
9,20559523379.281286
1381,12030700383.864418
2,1, 7,21, 0,17, 0.00,60.00,SummerDesignDay
9,20350071453.97029
1381,12030237402.846547
2,1, 7,21, 0,18, 0.00,60.00,SummerDesignDay
9,20246625365.008
1381,12126491666.586419
2,1, 7,21, 0,19, 0.00,60.00,SummerDesignDay
9,20106167567.713216
1381,12792918718.135672
2,1, 7,21, 0,20, 0.00,60.00,SummerDesignDay
9,19920893843.342954
1381,12826828033.434166
2,1, 7,21, 0,21, 0.00,60.00,SummerDesignDay
9,20147178276.894449
1381,12757464392.45261
2,1, 7,21, 0,22, 0.00,60.00,SummerDesignDay
9,19741145911.977685
1381,12793812384.33269
2,1, 7,21, 0,23, 0.00,60.00,SummerDesignDay
9,18670246393.325
1381,12424571317.27527
2,1, 7,21, 0,24, 0.00,60.00,SummerDesignDay
9,18063312519.86205
1381,11739042740.523922
1,BUFFALO NIAGARA INTL AP ANN HTG 99.6% CONDNS DB 1 HVAC Sizing Pass 1,  42.93, -78.73,  -5.00, 215.00
2,1, 1,21, 0, 1, 0.00,60.00,WinterDesignDay
9,3489050539.6995289
1381,22598263926.646783
2,1, 1,21, 0, 2, 0.00,60.00,WinterDesignDay
9,3103488004.232902
1381,16412026467.921074
2,1, 1,21, 0, 3, 0.00,60.00,WinterDesignDay
9,3103776022.304372
1381,16316993683.463324
2,1, 1,21, 0, 4, 0.00,60.00,WinterDesignDay
9,3103677384.0324418
1381,16345924721.237729
2,1, 1,21, 0, 5, 0.00,60.00,WinterDesignDay
9,3103758272.451742
1381,16371163115.960543
2,1, 1,21, 0, 6, 0.00,60.00,WinterDesignDay
9,3133571258.0272428
1381,17026865967.463589
2,1, 1,21, 0, 7, 0.00,60.00,WinterDesignDay
9,3421840859.9849026
1381,23790599037.322259
2,1, 1,21, 0, 8, 0.00,60.00,WinterDesignDay
9,3431375782.4005329
1381,23962313546.001119
2,1, 1,21, 0, 9, 0.00,60.00,WinterDesignDay
9,2762242576.1784346
1381,23890913153.789979
2,1, 1,21, 0,10, 0.00,60.00,WinterDesignDay
9,3746587880.8226258
1381,25239846533.668619
2,1, 1,21, 0,11, 0.00,60.00,WinterDesignDay
9,3626983664.689393
1381,25021287309.78758
2,1, 1,21, 0,12, 0.00,60.00,WinterDesignDay
9,3723374830.3791515
1381,25224416180.66996
2,1, 1,21, 0,13, 0.00,60.00,WinterDesignDay
9,3709056470.097749
1381,25203495902.690034
2,1, 1,21, 0,14, 0.00,60.00,WinterDesignDay
9,3621597735.739857
1381,24942871039.684804
2,1, 1,21, 0,15, 0.00,60.00,WinterDesignDay
9,3522426844.4198839
1381,24673389737.93495
2,1, 1,21, 0,16, 0.00,60.00,WinterDesignDay
9,3517916646.5889875
1381,24662635033.76042
2,1, 1,21, 0,17, 0.00,60.00,WinterDesignDay
9,3424032838.8653829
1381,24633249632.98145
2,1, 1,21, 0,18, 0.00,60.00,WinterDesignDay
9,4183038297.370209
1381,24640973903.772169
2,1, 1,21, 0,19, 0.00,60.00,WinterDesignDay
9,4483677834.126211
1381,25114868871.403974
2,1, 1,21, 0,20, 0.00,60.00,WinterDesignDay
9,4510048631.410755
1381,25103176333.33331
2,1, 1,21, 0,21, 0.00,60.00,WinterDesignDay
9,4387848943.233599
1381,25099905871.330823
2,1, 1,21, 0,22, 0.00,60.00,WinterDesignDay
9,4493875339.918574
1381,25089841081.22499
2,1, 1,21, 0,23, 0.00,60.00,WinterDesignDay
9,4112943811.2595365
1381,23238193810.3133
2,1, 1,21, 0,24, 0.00,60.00,WinterDesignDay
9,3922174682.970093
1381,23028676968.865007
1,BUFFALO NIAGARA INTL AP ANN CLG .4% CONDNS DB=>MWB 1,  42.93, -78.73,  -5.00, 215.00
2,1, 7,21, 0, 1, 0.00,60.00,SummerDesignDay
9,16330518533.483412
1381,11483000019.200272
2,1, 7,21, 0, 2, 0.00,60.00,SummerDesignDay
9,15083388736.629588
1381,6642653744.682075
2,1, 7,21, 0, 3, 0.00,60.00,SummerDesignDay
9,15097170584.974867
1381,6457276570.74201
2,1, 7,21, 0, 4, 0.00,60.00,SummerDesignDay
9,15207347646.90762
1381,6457276570.74201
2,1, 7,21, 0, 5, 0.00,60.00,SummerDesignDay
9,15303723670.123045
1381,6457276570.74201
2,1, 7,21, 0, 6, 0.00,60.00,SummerDesignDay
9,15866895202.306208
1381,6457276570.74201
2,1, 7,21, 0, 7, 0.00,60.00,SummerDesignDay
9,18151837707.107427
1381,10415471470.885617
2,1, 7,21, 0, 8, 0.00,60.00,SummerDesignDay
9,19763212581.747426
1381,13050975776.656474
2,1, 7,21, 0, 9, 0.00,60.00,SummerDesignDay
9,19414668947.579687
1381,12719192107.108887
2,1, 7,21, 0,10, 0.00,60.00,SummerDesignDay
9,19359039651.093984
1381,12481369122.732428
2,1, 7,21, 0,11, 0.00,60.00,SummerDesignDay
9,19304848354.58743
1381,12096780618.25229
2,1, 7,21, 0,12, 0.00,60.00,SummerDesignDay
9,19413914410.754079
1381,12423754066.680432
2,1, 7,21, 0,13, 0.00,60.00,SummerDesignDay
9,19355869872.338987
1381,12376788637.70499
2,1, 7,21, 0,14, 0.00,60.00,SummerDesignDay
9,19307845187.74817
1381,12051669817.42006
2,1, 7,21, 0,15, 0.00,60.00,SummerDesignDay
9,19196498888.749177
1381,12031163769.057072
2,1, 7,21, 0,16, 0.00,60.00,SummerDesignDay
9,19108831907.73822
1381,12030700383.879876
2,1, 7,21, 0,17, 0.00,60.00,SummerDesignDay
9,18992338405.64205
1381,12030237402.861802
2,1, 7,21, 0,18, 0.00,60.00,SummerDesignDay
9,19003682757.305494
1381,12126491667.376643
2,1, 7,21, 0,19, 0.00,60.00,SummerDesignDay
9,19032980437.3946
1381,12792918718.13694
2,1, 7,21, 0,20, 0.00,60.00,SummerDesignDay
9,18980633036.540197
1381,12826828033.43536
2,1, 7,21, 0,21, 0.00,60.00,SummerDesignDay
9,19303431955.556425
1381,12757464392.453969
2,1, 7,21, 0,22, 0.00,60.00,SummerDesignDay
9,19252798059.121377
1381,12793812384.333855
2,1, 7,21, 0,23, 0.00,60.00,SummerDesignDay
9,18394388013.53525
1381,12424571317.275265
2,1, 7,21, 0,24, 0.00,60.00,SummerDesignDay
9,17944249690.420396
1381,11739042739.904076
1,BUFFALO NIAGARA INTL AP ANN CLG .4% CONDNS WB=>MDB 1,  42.93, -78.73,  -5.00, 215.00
2,1, 7,21, 0, 1, 0.00,60.00,SummerDesignDay
9,16374447295.708348
1381,11483000019.200272
2,1, 7,21, 0, 2, 0.00,60.00,SummerDesignDay
9,15081428324.046099
1381,6642653744.682075
2,1, 7,21, 0, 3, 0.00,60.00,SummerDesignDay
9,15066208593.556815
1381,6457276570.74201
2,1, 7,21, 0, 4, 0.00,60.00,SummerDesignDay
9,15121011645.9164
1381,6457276570.74201
2,1, 7,21, 0, 5, 0.00,60.00,SummerDesignDay
9,15183036891.48355
1381,6457276570.74201
2,1, 7,21, 0, 6, 0.00,60.00,SummerDesignDay
9,15701778004.496479
1381,6457276570.74201
2,1, 7,21, 0, 7, 0.00,60.00,SummerDesignDay
9,18096001946.64762
1381,11408048706.52129
2,1, 7,21, 0, 8, 0.00,60.00,SummerDesignDay
9,20141257818.650007
1381,12827009631.432438
2,1, 7,21, 0, 9, 0.00,60.00,SummerDesignDay
9,20380829090.80506
1381,12792976614.165554
2,1, 7,21, 0,10, 0.00,60.00,SummerDesignDay
9,20450105120.007909
1381,12424285362.155398
2,1, 7,21, 0,11, 0.00,60.00,SummerDesignDay
9,20581567535.056039
1381,12377340691.220128
2,1, 7,21, 0,12, 0.00,60.00,SummerDesignDay
9,20778164726.717546
1381,12424915660.329144
2,1, 7,21, 0,13, 0.00,60.00,SummerDesignDay
9,20255891024.09112
1381,12288982468.837454
2,1, 7,21, 0,14, 0.00,60.00,SummerDesignDay
9,20252089653.6041
1381,12107466125.074769
2,1, 7,21, 0,15, 0.00,60.00,SummerDesignDay
9,20150145373.75756
1381,11955089731.504546
2,1, 7,21, 0,16, 0.00,60.00,SummerDesignDay
9,20551632063.127168
1381,11954875811.908452
2,1, 7,21, 0,17, 0.00,60.00,SummerDesignDay
9,20351490784.32614
1381,11954658326.861958
2,1, 7,21, 0,18, 0.00,60.00,SummerDesignDay
9,20250802241.868448
1381,12377320454.534005
2,1, 7,21, 0,19, 0.00,60.00,SummerDesignDay
9,20119721854.83136
1381,12793776237.404118
2,1, 7,21, 0,20, 0.00,60.00,SummerDesignDay
9,19946626586.76363
1381,12827630314.869235
2,1, 7,21, 0,21, 0.00,60.00,SummerDesignDay
9,20172686501.649293
1381,12469202035.612172
2,1, 7,21, 0,22, 0.00,60.00,SummerDesignDay
9,19776253795.042444
1381,12792849325.720166
2,1, 7,21, 0,23, 0.00,60.00,SummerDesignDay
9,18717646483.821237
1381,12424550297.338158
2,1, 7,21, 0,24, 0.00,60.00,SummerDesignDay
9,18106143009.479387
1381,11890420820.95921
1,BUFFALO NIAGARA INTL AP ANN HTG 99.6% CONDNS DB 1,  42.93, -78.73,  -5.00, 215.00
2,1, 1,21, 0, 1, 0.00,60.00,WinterDesignDay
9,3489046854.2360947
1381,22598263926.646783
2,1, 1,21, 0, 2, 0.00,60.00,WinterDesignDay
9,3103488000.457814
1381,16412026467.921074
2,1, 1,21, 0, 3, 0.00,60.00,WinterDesignDay
9,3103776014.818299
1381,16316993683.463324
2,1, 1,21, 0, 4, 0.00,60.00,WinterDesignDay
9,3103677380.190804
1381,16345924721.237729
2,1, 1,21, 0, 5, 0.00,60.00,WinterDesignDay
9,3103758268.6429288
1381,16371163115.960543
2,1, 1,21, 0, 6, 0.00,60.00,WinterDesignDay
9,3133571254.304683
1381,17026865967.463589
2,1, 1,21, 0, 7, 0.00,60.00,WinterDesignDay
9,3421840856.267421
1381,23790599037.322259
2,1, 1,21, 0, 8, 0.00,60.00,WinterDesignDay
9,3431375774.968146
1381,23962313546.001119
2,1, 1,21, 0, 9, 0.00,60.00,WinterDesignDay
9,2762242572.449511
1381,23890913153.789979
2,1, 1,21, 0,10, 0.00,60.00,WinterDesignDay
9,3746330817.151507
1381,25239846533.668619
2,1, 1,21, 0,11, 0.00,60.00,WinterDesignDay
9,3627225349.091228
1381,25021287309.78758
2,1, 1,21, 0,12, 0.00,60.00,WinterDesignDay
9,3723387549.0281336
1381,25224416180.66996
2,1, 1,21, 0,13, 0.00,60.00,WinterDesignDay
9,3709263779.155827
1381,25203495902.690034
2,1, 1,21, 0,14, 0.00,60.00,WinterDesignDay
9,3621407510.9462835
1381,24942871039.684804
2,1, 1,21, 0,15, 0.00,60.00,WinterDesignDay
9,3522343443.015003
1381,24673389737.934789
2,1, 1,21, 0,16, 0.00,60.00,WinterDesignDay
9,3517939867.3393986
1381,24662635033.721376
2,1, 1,21, 0,17, 0.00,60.00,WinterDesignDay
9,3424001354.1948745
1381,24633249632.936269
2,1, 1,21, 0,18, 0.00,60.00,WinterDesignDay
9,4182988768.4906885
1381,24640973903.7381
2,1, 1,21, 0,19, 0.00,60.00,WinterDesignDay
9,4483646252.060238
1381,25114868871.403974
2,1, 1,21, 0,20, 0.00,60.00,WinterDesignDay
9,4509457128.579971
1381,25103176333.33331
2,1, 1,21, 0,21, 0.00,60.00,WinterDesignDay
9,4388280005.471574
1381,25099905871.330823
2,1, 1,21, 0,22, 0.00,60.00,WinterDesignDay
9,4493909080.205314
1381,25089841081.22499
2,1, 1,21, 0,23, 0.00,60.00,WinterDesignDay
9,4113303630.429808
1381,23238193811.849229
2,1, 1,21, 0,24, 0.00,60.00,WinterDesignDay
9,3921864251.935859
1381,23028676967.243917
End of Data
 Number of Records Written=         288
